 Generated by Multiwfn
GAUSSIAN            119 MOL ORBITALS    552 PRIMITIVES       30 NUCLEI
  B    1    (CENTRE  1)   7.10130353  2.78876115 -0.00065324  CHARGE =  5.0
  H    2    (CENTRE  2)   7.12676973  5.03728777 -0.00086553  CHARGE =  1.0
  B    3    (CENTRE  3)   2.36402390  2.76449355  0.00136429  CHARGE =  5.0
  H    4    (CENTRE  4)   2.35761272  5.01027608  0.00220289  CHARGE =  1.0
  B    5    (CENTRE  5)  -2.36399276  2.76447084  0.00040693  CHARGE =  5.0
  H    6    (CENTRE  6)  -2.35797534  5.01022770 -0.00001780  CHARGE =  1.0
  B    7    (CENTRE  7)  -7.10111038  2.78877833 -0.00061080  CHARGE =  5.0
  H    8    (CENTRE  8)  -7.12639843  5.03729586 -0.00178269  CHARGE =  1.0
  B    9    (CENTRE  9)  -9.50056157 -1.30708993 -0.00058691  CHARGE =  5.0
  H   10    (CENTRE 10) -11.45886758 -2.41945307 -0.00165368  CHARGE =  1.0
  B   11    (CENTRE 11)  -4.75306820 -1.33294974 -0.00026288  CHARGE =  5.0
  B   12    (CENTRE 12)  -0.00010210 -1.35010278  0.00109748  CHARGE =  5.0
  B   13    (CENTRE 13)   4.75297456 -1.33272061  0.00046973  CHARGE =  5.0
  B   14    (CENTRE 14)   9.50056678 -1.30734228 -0.00120342  CHARGE =  5.0
  H   15    (CENTRE 15)  11.45891637 -2.41960901 -0.00122190  CHARGE =  1.0
  N   16    (CENTRE 16)   9.40663655  1.39387182 -0.00119484  CHARGE =  7.0
  H   17    (CENTRE 17)  11.04333614  2.36214912 -0.00161504  CHARGE =  1.0
  N   18    (CENTRE 18)   4.73612939  1.42357924  0.00024585  CHARGE =  7.0
  N   19    (CENTRE 19)   0.00002406  1.40762835  0.00162165  CHARGE =  7.0
  N   20    (CENTRE 20)  -4.73608691  1.42333382 -0.00042543  CHARGE =  7.0
  N   21    (CENTRE 21)  -9.40657906  1.39404326 -0.00001922  CHARGE =  7.0
  H   22    (CENTRE 22) -11.04326295  2.36233823 -0.00049779  CHARGE =  1.0
  N   23    (CENTRE 23)  -7.14884025 -2.61502332 -0.00091982  CHARGE =  7.0
  H   24    (CENTRE 24)  -7.18527175 -4.51754002 -0.00082479  CHARGE =  1.0
  N   25    (CENTRE 25)  -2.38114956 -2.63790261  0.00021070  CHARGE =  7.0
  H   26    (CENTRE 26)  -2.39085389 -4.54204998 -0.00011476  CHARGE =  1.0
  N   27    (CENTRE 27)   2.38111967 -2.63780750  0.00163157  CHARGE =  7.0
  H   28    (CENTRE 28)   2.39058918 -4.54199605  0.00218938  CHARGE =  1.0
  N   29    (CENTRE 29)   7.14883494 -2.61499892 -0.00050255  CHARGE =  7.0
  H   30    (CENTRE 30)   7.18461541 -4.51748840 -0.00043961  CHARGE =  1.0
CENTRE ASSIGNMENTS    1  1  1  1  1  1  1  1  1  1  1  1  1  1  1  1  1  1  1  1
CENTRE ASSIGNMENTS    1  1  1  1  1  1  1  1  2  2  2  2  3  3  3  3  3  3  3  3
CENTRE ASSIGNMENTS    3  3  3  3  3  3  3  3  3  3  3  3  3  3  3  3  3  3  3  3
CENTRE ASSIGNMENTS    4  4  4  4  5  5  5  5  5  5  5  5  5  5  5  5  5  5  5  5
CENTRE ASSIGNMENTS    5  5  5  5  5  5  5  5  5  5  5  5  6  6  6  6  7  7  7  7
CENTRE ASSIGNMENTS    7  7  7  7  7  7  7  7  7  7  7  7  7  7  7  7  7  7  7  7
CENTRE ASSIGNMENTS    7  7  7  7  8  8  8  8  9  9  9  9  9  9  9  9  9  9  9  9
CENTRE ASSIGNMENTS    9  9  9  9  9  9  9  9  9  9  9  9  9  9  9  9 10 10 10 10
CENTRE ASSIGNMENTS   11 11 11 11 11 11 11 11 11 11 11 11 11 11 11 11 11 11 11 11
CENTRE ASSIGNMENTS   11 11 11 11 11 11 11 11 12 12 12 12 12 12 12 12 12 12 12 12
CENTRE ASSIGNMENTS   12 12 12 12 12 12 12 12 12 12 12 12 12 12 12 12 13 13 13 13
CENTRE ASSIGNMENTS   13 13 13 13 13 13 13 13 13 13 13 13 13 13 13 13 13 13 13 13
CENTRE ASSIGNMENTS   13 13 13 13 14 14 14 14 14 14 14 14 14 14 14 14 14 14 14 14
CENTRE ASSIGNMENTS   14 14 14 14 14 14 14 14 14 14 14 14 15 15 15 15 16 16 16 16
CENTRE ASSIGNMENTS   16 16 16 16 16 16 16 16 16 16 16 16 16 16 16 16 16 16 16 16
CENTRE ASSIGNMENTS   16 16 16 16 17 17 17 17 18 18 18 18 18 18 18 18 18 18 18 18
CENTRE ASSIGNMENTS   18 18 18 18 18 18 18 18 18 18 18 18 18 18 18 18 19 19 19 19
CENTRE ASSIGNMENTS   19 19 19 19 19 19 19 19 19 19 19 19 19 19 19 19 19 19 19 19
CENTRE ASSIGNMENTS   19 19 19 19 20 20 20 20 20 20 20 20 20 20 20 20 20 20 20 20
CENTRE ASSIGNMENTS   20 20 20 20 20 20 20 20 20 20 20 20 21 21 21 21 21 21 21 21
CENTRE ASSIGNMENTS   21 21 21 21 21 21 21 21 21 21 21 21 21 21 21 21 21 21 21 21
CENTRE ASSIGNMENTS   22 22 22 22 23 23 23 23 23 23 23 23 23 23 23 23 23 23 23 23
CENTRE ASSIGNMENTS   23 23 23 23 23 23 23 23 23 23 23 23 24 24 24 24 25 25 25 25
CENTRE ASSIGNMENTS   25 25 25 25 25 25 25 25 25 25 25 25 25 25 25 25 25 25 25 25
CENTRE ASSIGNMENTS   25 25 25 25 26 26 26 26 27 27 27 27 27 27 27 27 27 27 27 27
CENTRE ASSIGNMENTS   27 27 27 27 27 27 27 27 27 27 27 27 27 27 27 27 28 28 28 28
CENTRE ASSIGNMENTS   29 29 29 29 29 29 29 29 29 29 29 29 29 29 29 29 29 29 29 29
CENTRE ASSIGNMENTS   29 29 29 29 29 29 29 29 30 30 30 30
TYPE ASSIGNMENTS      1  1  1  1  1  1  1  1  1  2  2  2  3  3  3  4  4  4  1  2
TYPE ASSIGNMENTS      3  4  5  6  7  8  9 10  1  1  1  1  1  1  1  1  1  1  1  1
TYPE ASSIGNMENTS      1  2  2  2  3  3  3  4  4  4  1  2  3  4  5  6  7  8  9 10
TYPE ASSIGNMENTS      1  1  1  1  1  1  1  1  1  1  1  1  1  2  2  2  3  3  3  4
TYPE ASSIGNMENTS      4  4  1  2  3  4  5  6  7  8  9 10  1  1  1  1  1  1  1  1
TYPE ASSIGNMENTS      1  1  1  1  1  2  2  2  3  3  3  4  4  4  1  2  3  4  5  6
TYPE ASSIGNMENTS      7  8  9 10  1  1  1  1  1  1  1  1  1  1  1  1  1  2  2  2
TYPE ASSIGNMENTS      3  3  3  4  4  4  1  2  3  4  5  6  7  8  9 10  1  1  1  1
TYPE ASSIGNMENTS      1  1  1  1  1  1  1  1  1  2  2  2  3  3  3  4  4  4  1  2
TYPE ASSIGNMENTS      3  4  5  6  7  8  9 10  1  1  1  1  1  1  1  1  1  2  2  2
TYPE ASSIGNMENTS      3  3  3  4  4  4  1  2  3  4  5  6  7  8  9 10  1  1  1  1
TYPE ASSIGNMENTS      1  1  1  1  1  2  2  2  3  3  3  4  4  4  1  2  3  4  5  6
TYPE ASSIGNMENTS      7  8  9 10  1  1  1  1  1  1  1  1  1  2  2  2  3  3  3  4
TYPE ASSIGNMENTS      4  4  1  2  3  4  5  6  7  8  9 10  1  1  1  1  1  1  1  1
TYPE ASSIGNMENTS      1  1  1  1  1  2  2  2  3  3  3  4  4  4  1  2  3  4  5  6
TYPE ASSIGNMENTS      7  8  9 10  1  1  1  1  1  1  1  1  1  1  1  1  1  2  2  2
TYPE ASSIGNMENTS      3  3  3  4  4  4  1  2  3  4  5  6  7  8  9 10  1  1  1  1
TYPE ASSIGNMENTS      1  1  1  1  1  2  2  2  3  3  3  4  4  4  1  2  3  4  5  6
TYPE ASSIGNMENTS      7  8  9 10  1  1  1  1  1  1  1  1  1  2  2  2  3  3  3  4
TYPE ASSIGNMENTS      4  4  1  2  3  4  5  6  7  8  9 10  1  1  1  1  1  1  1  1
TYPE ASSIGNMENTS      1  2  2  2  3  3  3  4  4  4  1  2  3  4  5  6  7  8  9 10
TYPE ASSIGNMENTS      1  1  1  1  1  1  1  1  1  1  1  1  1  2  2  2  3  3  3  4
TYPE ASSIGNMENTS      4  4  1  2  3  4  5  6  7  8  9 10  1  1  1  1  1  1  1  1
TYPE ASSIGNMENTS      1  1  1  1  1  2  2  2  3  3  3  4  4  4  1  2  3  4  5  6
TYPE ASSIGNMENTS      7  8  9 10  1  1  1  1  1  1  1  1  1  1  1  1  1  2  2  2
TYPE ASSIGNMENTS      3  3  3  4  4  4  1  2  3  4  5  6  7  8  9 10  1  1  1  1
TYPE ASSIGNMENTS      1  1  1  1  1  1  1  1  1  2  2  2  3  3  3  4  4  4  1  2
TYPE ASSIGNMENTS      3  4  5  6  7  8  9 10  1  1  1  1
EXPONENTS  0.2068882D+04 0.3106496D+03 0.7068303D+02 0.1986108D+02 0.6299305D+01
EXPONENTS  0.2127027D+01 0.4727971D+01 0.1190338D+01 0.3594117D+00 0.4727971D+01
EXPONENTS  0.1190338D+01 0.3594117D+00 0.4727971D+01 0.1190338D+01 0.3594117D+00
EXPONENTS  0.4727971D+01 0.1190338D+01 0.3594117D+00 0.1267512D+00 0.1267512D+00
EXPONENTS  0.1267512D+00 0.1267512D+00 0.6000000D+00 0.6000000D+00 0.6000000D+00
EXPONENTS  0.6000000D+00 0.6000000D+00 0.6000000D+00 0.1873114D+02 0.2825394D+01
EXPONENTS  0.6401217D+00 0.1612778D+00 0.2068882D+04 0.3106496D+03 0.7068303D+02
EXPONENTS  0.1986108D+02 0.6299305D+01 0.2127027D+01 0.4727971D+01 0.1190338D+01
EXPONENTS  0.3594117D+00 0.4727971D+01 0.1190338D+01 0.3594117D+00 0.4727971D+01
EXPONENTS  0.1190338D+01 0.3594117D+00 0.4727971D+01 0.1190338D+01 0.3594117D+00
EXPONENTS  0.1267512D+00 0.1267512D+00 0.1267512D+00 0.1267512D+00 0.6000000D+00
EXPONENTS  0.6000000D+00 0.6000000D+00 0.6000000D+00 0.6000000D+00 0.6000000D+00
EXPONENTS  0.1873114D+02 0.2825394D+01 0.6401217D+00 0.1612778D+00 0.2068882D+04
EXPONENTS  0.3106496D+03 0.7068303D+02 0.1986108D+02 0.6299305D+01 0.2127027D+01
EXPONENTS  0.4727971D+01 0.1190338D+01 0.3594117D+00 0.4727971D+01 0.1190338D+01
EXPONENTS  0.3594117D+00 0.4727971D+01 0.1190338D+01 0.3594117D+00 0.4727971D+01
EXPONENTS  0.1190338D+01 0.3594117D+00 0.1267512D+00 0.1267512D+00 0.1267512D+00
EXPONENTS  0.1267512D+00 0.6000000D+00 0.6000000D+00 0.6000000D+00 0.6000000D+00
EXPONENTS  0.6000000D+00 0.6000000D+00 0.1873114D+02 0.2825394D+01 0.6401217D+00
EXPONENTS  0.1612778D+00 0.2068882D+04 0.3106496D+03 0.7068303D+02 0.1986108D+02
EXPONENTS  0.6299305D+01 0.2127027D+01 0.4727971D+01 0.1190338D+01 0.3594117D+00
EXPONENTS  0.4727971D+01 0.1190338D+01 0.3594117D+00 0.4727971D+01 0.1190338D+01
EXPONENTS  0.3594117D+00 0.4727971D+01 0.1190338D+01 0.3594117D+00 0.1267512D+00
EXPONENTS  0.1267512D+00 0.1267512D+00 0.1267512D+00 0.6000000D+00 0.6000000D+00
EXPONENTS  0.6000000D+00 0.6000000D+00 0.6000000D+00 0.6000000D+00 0.1873114D+02
EXPONENTS  0.2825394D+01 0.6401217D+00 0.1612778D+00 0.2068882D+04 0.3106496D+03
EXPONENTS  0.7068303D+02 0.1986108D+02 0.6299305D+01 0.2127027D+01 0.4727971D+01
EXPONENTS  0.1190338D+01 0.3594117D+00 0.4727971D+01 0.1190338D+01 0.3594117D+00
EXPONENTS  0.4727971D+01 0.1190338D+01 0.3594117D+00 0.4727971D+01 0.1190338D+01
EXPONENTS  0.3594117D+00 0.1267512D+00 0.1267512D+00 0.1267512D+00 0.1267512D+00
EXPONENTS  0.6000000D+00 0.6000000D+00 0.6000000D+00 0.6000000D+00 0.6000000D+00
EXPONENTS  0.6000000D+00 0.1873114D+02 0.2825394D+01 0.6401217D+00 0.1612778D+00
EXPONENTS  0.2068882D+04 0.3106496D+03 0.7068303D+02 0.1986108D+02 0.6299305D+01
EXPONENTS  0.2127027D+01 0.4727971D+01 0.1190338D+01 0.3594117D+00 0.4727971D+01
EXPONENTS  0.1190338D+01 0.3594117D+00 0.4727971D+01 0.1190338D+01 0.3594117D+00
EXPONENTS  0.4727971D+01 0.1190338D+01 0.3594117D+00 0.1267512D+00 0.1267512D+00
EXPONENTS  0.1267512D+00 0.1267512D+00 0.6000000D+00 0.6000000D+00 0.6000000D+00
EXPONENTS  0.6000000D+00 0.6000000D+00 0.6000000D+00 0.2068882D+04 0.3106496D+03
EXPONENTS  0.7068303D+02 0.1986108D+02 0.6299305D+01 0.2127027D+01 0.4727971D+01
EXPONENTS  0.1190338D+01 0.3594117D+00 0.4727971D+01 0.1190338D+01 0.3594117D+00
EXPONENTS  0.4727971D+01 0.1190338D+01 0.3594117D+00 0.4727971D+01 0.1190338D+01
EXPONENTS  0.3594117D+00 0.1267512D+00 0.1267512D+00 0.1267512D+00 0.1267512D+00
EXPONENTS  0.6000000D+00 0.6000000D+00 0.6000000D+00 0.6000000D+00 0.6000000D+00
EXPONENTS  0.6000000D+00 0.2068882D+04 0.3106496D+03 0.7068303D+02 0.1986108D+02
EXPONENTS  0.6299305D+01 0.2127027D+01 0.4727971D+01 0.1190338D+01 0.3594117D+00
EXPONENTS  0.4727971D+01 0.1190338D+01 0.3594117D+00 0.4727971D+01 0.1190338D+01
EXPONENTS  0.3594117D+00 0.4727971D+01 0.1190338D+01 0.3594117D+00 0.1267512D+00
EXPONENTS  0.1267512D+00 0.1267512D+00 0.1267512D+00 0.6000000D+00 0.6000000D+00
EXPONENTS  0.6000000D+00 0.6000000D+00 0.6000000D+00 0.6000000D+00 0.2068882D+04
EXPONENTS  0.3106496D+03 0.7068303D+02 0.1986108D+02 0.6299305D+01 0.2127027D+01
EXPONENTS  0.4727971D+01 0.1190338D+01 0.3594117D+00 0.4727971D+01 0.1190338D+01
EXPONENTS  0.3594117D+00 0.4727971D+01 0.1190338D+01 0.3594117D+00 0.4727971D+01
EXPONENTS  0.1190338D+01 0.3594117D+00 0.1267512D+00 0.1267512D+00 0.1267512D+00
EXPONENTS  0.1267512D+00 0.6000000D+00 0.6000000D+00 0.6000000D+00 0.6000000D+00
EXPONENTS  0.6000000D+00 0.6000000D+00 0.1873114D+02 0.2825394D+01 0.6401217D+00
EXPONENTS  0.1612778D+00 0.4173511D+04 0.6274579D+03 0.1429021D+03 0.4023433D+02
EXPONENTS  0.1282021D+02 0.4390437D+01 0.1162636D+02 0.2716280D+01 0.7722184D+00
EXPONENTS  0.1162636D+02 0.2716280D+01 0.7722184D+00 0.1162636D+02 0.2716280D+01
EXPONENTS  0.7722184D+00 0.1162636D+02 0.2716280D+01 0.7722184D+00 0.2120315D+00
EXPONENTS  0.2120315D+00 0.2120315D+00 0.2120315D+00 0.8000000D+00 0.8000000D+00
EXPONENTS  0.8000000D+00 0.8000000D+00 0.8000000D+00 0.8000000D+00 0.1873114D+02
EXPONENTS  0.2825394D+01 0.6401217D+00 0.1612778D+00 0.4173511D+04 0.6274579D+03
EXPONENTS  0.1429021D+03 0.4023433D+02 0.1282021D+02 0.4390437D+01 0.1162636D+02
EXPONENTS  0.2716280D+01 0.7722184D+00 0.1162636D+02 0.2716280D+01 0.7722184D+00
EXPONENTS  0.1162636D+02 0.2716280D+01 0.7722184D+00 0.1162636D+02 0.2716280D+01
EXPONENTS  0.7722184D+00 0.2120315D+00 0.2120315D+00 0.2120315D+00 0.2120315D+00
EXPONENTS  0.8000000D+00 0.8000000D+00 0.8000000D+00 0.8000000D+00 0.8000000D+00
EXPONENTS  0.8000000D+00 0.4173511D+04 0.6274579D+03 0.1429021D+03 0.4023433D+02
EXPONENTS  0.1282021D+02 0.4390437D+01 0.1162636D+02 0.2716280D+01 0.7722184D+00
EXPONENTS  0.1162636D+02 0.2716280D+01 0.7722184D+00 0.1162636D+02 0.2716280D+01
EXPONENTS  0.7722184D+00 0.1162636D+02 0.2716280D+01 0.7722184D+00 0.2120315D+00
EXPONENTS  0.2120315D+00 0.2120315D+00 0.2120315D+00 0.8000000D+00 0.8000000D+00
EXPONENTS  0.8000000D+00 0.8000000D+00 0.8000000D+00 0.8000000D+00 0.4173511D+04
EXPONENTS  0.6274579D+03 0.1429021D+03 0.4023433D+02 0.1282021D+02 0.4390437D+01
EXPONENTS  0.1162636D+02 0.2716280D+01 0.7722184D+00 0.1162636D+02 0.2716280D+01
EXPONENTS  0.7722184D+00 0.1162636D+02 0.2716280D+01 0.7722184D+00 0.1162636D+02
EXPONENTS  0.2716280D+01 0.7722184D+00 0.2120315D+00 0.2120315D+00 0.2120315D+00
EXPONENTS  0.2120315D+00 0.8000000D+00 0.8000000D+00 0.8000000D+00 0.8000000D+00
EXPONENTS  0.8000000D+00 0.8000000D+00 0.4173511D+04 0.6274579D+03 0.1429021D+03
EXPONENTS  0.4023433D+02 0.1282021D+02 0.4390437D+01 0.1162636D+02 0.2716280D+01
EXPONENTS  0.7722184D+00 0.1162636D+02 0.2716280D+01 0.7722184D+00 0.1162636D+02
EXPONENTS  0.2716280D+01 0.7722184D+00 0.1162636D+02 0.2716280D+01 0.7722184D+00
EXPONENTS  0.2120315D+00 0.2120315D+00 0.2120315D+00 0.2120315D+00 0.8000000D+00
EXPONENTS  0.8000000D+00 0.8000000D+00 0.8000000D+00 0.8000000D+00 0.8000000D+00
EXPONENTS  0.1873114D+02 0.2825394D+01 0.6401217D+00 0.1612778D+00 0.4173511D+04
EXPONENTS  0.6274579D+03 0.1429021D+03 0.4023433D+02 0.1282021D+02 0.4390437D+01
EXPONENTS  0.1162636D+02 0.2716280D+01 0.7722184D+00 0.1162636D+02 0.2716280D+01
EXPONENTS  0.7722184D+00 0.1162636D+02 0.2716280D+01 0.7722184D+00 0.1162636D+02
EXPONENTS  0.2716280D+01 0.7722184D+00 0.2120315D+00 0.2120315D+00 0.2120315D+00
EXPONENTS  0.2120315D+00 0.8000000D+00 0.8000000D+00 0.8000000D+00 0.8000000D+00
EXPONENTS  0.8000000D+00 0.8000000D+00 0.1873114D+02 0.2825394D+01 0.6401217D+00
EXPONENTS  0.1612778D+00 0.4173511D+04 0.6274579D+03 0.1429021D+03 0.4023433D+02
EXPONENTS  0.1282021D+02 0.4390437D+01 0.1162636D+02 0.2716280D+01 0.7722184D+00
EXPONENTS  0.1162636D+02 0.2716280D+01 0.7722184D+00 0.1162636D+02 0.2716280D+01
EXPONENTS  0.7722184D+00 0.1162636D+02 0.2716280D+01 0.7722184D+00 0.2120315D+00
EXPONENTS  0.2120315D+00 0.2120315D+00 0.2120315D+00 0.8000000D+00 0.8000000D+00
EXPONENTS  0.8000000D+00 0.8000000D+00 0.8000000D+00 0.8000000D+00 0.1873114D+02
EXPONENTS  0.2825394D+01 0.6401217D+00 0.1612778D+00 0.4173511D+04 0.6274579D+03
EXPONENTS  0.1429021D+03 0.4023433D+02 0.1282021D+02 0.4390437D+01 0.1162636D+02
EXPONENTS  0.2716280D+01 0.7722184D+00 0.1162636D+02 0.2716280D+01 0.7722184D+00
EXPONENTS  0.1162636D+02 0.2716280D+01 0.7722184D+00 0.1162636D+02 0.2716280D+01
EXPONENTS  0.7722184D+00 0.2120315D+00 0.2120315D+00 0.2120315D+00 0.2120315D+00
EXPONENTS  0.8000000D+00 0.8000000D+00 0.8000000D+00 0.8000000D+00 0.8000000D+00
EXPONENTS  0.8000000D+00 0.1873114D+02 0.2825394D+01 0.6401217D+00 0.1612778D+00
EXPONENTS  0.4173511D+04 0.6274579D+03 0.1429021D+03 0.4023433D+02 0.1282021D+02
EXPONENTS  0.4390437D+01 0.1162636D+02 0.2716280D+01 0.7722184D+00 0.1162636D+02
EXPONENTS  0.2716280D+01 0.7722184D+00 0.1162636D+02 0.2716280D+01 0.7722184D+00
EXPONENTS  0.1162636D+02 0.2716280D+01 0.7722184D+00 0.2120315D+00 0.2120315D+00
EXPONENTS  0.2120315D+00 0.2120315D+00 0.8000000D+00 0.8000000D+00 0.8000000D+00
EXPONENTS  0.8000000D+00 0.8000000D+00 0.8000000D+00 0.1873114D+02 0.2825394D+01
EXPONENTS  0.6401217D+00 0.1612778D+00
MO    1     MO 0.0        OCC NO =    1.0000000  ORB. ENERGY =  -14.507342
  0.27640314D-06  0.50913000D-06  0.81857640D-06  0.10563964D-05  0.89665452D-06
  0.30904224D-06  0.14671768D-06  0.52304991D-07 -0.18422767D-06  0.12125189D-05
  0.89236488D-06  0.48235440D-06 -0.46896390D-05 -0.34513848D-05 -0.18655941D-05
 -0.65997745D-08 -0.48571674D-08 -0.26254687D-08 -0.11786410D-04 -0.75919793D-06
  0.55963646D-05  0.20511652D-08  0.83589356D-05  0.21422040D-05 -0.15068414D-06
  0.62005265D-05 -0.34289120D-08 -0.44276973D-08  0.75693862D-07  0.12839112D-06
  0.14616875D-06 -0.18424648D-05  0.58409688D-06  0.10758968D-05  0.17298209D-05
  0.22323837D-05  0.18948161D-05  0.65307004D-06 -0.25381810D-05 -0.90486389D-06
  0.31870948D-05 -0.16644444D-06 -0.12249638D-06 -0.66213573D-07 -0.18631524D-04
 -0.13712049D-04 -0.74118415D-05 -0.22126864D-08 -0.16284478D-08 -0.88023292D-09
  0.27250368D-04  0.56453223D-07 -0.30313748D-04 -0.80164165D-08  0.51638568D-05
  0.49311531D-05 -0.14857669D-06 -0.66550682D-06 -0.64250801D-08  0.84544514D-08
  0.32847431D-06  0.55715459D-06  0.63430081D-06  0.23138294D-04  0.21645927D-07
  0.39871439D-07  0.64105080D-07  0.82729452D-07  0.70219603D-07  0.24201989D-07
  0.90135056D-06  0.32133232D-06 -0.11317907D-05 -0.15260303D-05 -0.11230967D-05
 -0.60707299D-06 -0.18900591D-05 -0.13910071D-05 -0.75188796D-06 -0.59634657D-08
 -0.43888698D-08 -0.23723375D-08 -0.14882882D-04  0.74754377D-06  0.88668038D-05
 -0.10486973D-08  0.69760523D-05  0.87629752D-06 -0.53552355D-06 -0.54637690D-05
  0.40824604D-08  0.15483741D-09  0.97023475D-07  0.16457018D-06  0.18735733D-06
 -0.43212134D-05 -0.50105663D-06 -0.92293800D-06 -0.14838946D-05 -0.19150087D-05
 -0.16254327D-05 -0.56022397D-06  0.15163662D-05  0.54058597D-06 -0.19040418D-05
 -0.48477687D-05 -0.35677619D-05 -0.19285000D-05  0.18413765D-05  0.13551787D-05
  0.73252142D-06 -0.76958108D-09 -0.56638057D-09 -0.30614849D-09 -0.85198027D-06
 -0.81710744D-06  0.24538620D-06  0.21746599D-09 -0.41873283D-05 -0.83770565D-06
 -0.49486033D-06  0.13310506D-05  0.41637348D-09  0.92273305D-10  0.14827723D-06
  0.25150625D-06  0.28633097D-06 -0.48533506D-06 -0.16617096D-06 -0.30608415D-06
 -0.49212041D-06 -0.63509555D-06 -0.53906023D-06 -0.18579328D-06  0.43096330D-06
  0.15363882D-06 -0.54114379D-06 -0.13378511D-05 -0.98460438D-06 -0.53221307D-06
  0.41401476D-06  0.30469814D-06  0.16469999D-06 -0.27211868D-09 -0.20026835D-09
 -0.10825204D-09  0.11974460D-05  0.35335563D-06 -0.47391965D-06 -0.54913924D-10
 -0.10451790D-05 -0.13540098D-05 -0.38393620D-06  0.11724798D-05  0.46732086D-09
 -0.28357216D-09 -0.27125388D-07 -0.46009791D-07 -0.52380521D-07 -0.19722878D-06
  0.46741934D-06  0.86097866D-06  0.13842768D-05  0.17864490D-05  0.15163130D-05
  0.52261461D-06  0.40609871D-05  0.14477457D-05 -0.50992230D-05 -0.26478759D-04
 -0.19487297D-04 -0.10533565D-04  0.19023433D-04  0.14000478D-04  0.75677478D-05
 -0.92714744D-08 -0.68234305D-08 -0.36883026D-08  0.21582157D-05  0.57532070D-05
  0.49727853D-05  0.74920262D-09 -0.11811355D-04 -0.36982915D-06  0.47594949D-05
  0.15452804D-04 -0.11664734D-07  0.42914334D-08  0.31503243D-05  0.58028451D-05
  0.93297823D-05  0.12040353D-04  0.10219683D-04  0.35223307D-05 -0.46450057D-04
 -0.16559488D-04  0.58325522D-04  0.30664936D-03  0.22568154D-03  0.12198876D-03
 -0.13371048D-03 -0.98405513D-04 -0.53191618D-04  0.83842154D-07  0.61704438D-07
  0.33353405D-07 -0.59483379D-04 -0.61433226D-04  0.17231920D-04 -0.25890012D-07
  0.15803915D-03  0.54787728D-04 -0.36117071D-04 -0.21217668D-03  0.99068018D-07
 -0.59587071D-07  0.32581454D-05  0.60014498D-05  0.96490980D-05  0.12452439D-04
  0.10569456D-04  0.36428839D-05 -0.49556691D-04 -0.17667006D-04  0.62226401D-04
 -0.27586271D-03 -0.20302381D-03 -0.10974146D-03 -0.15238355D-03 -0.11214813D-03
 -0.60619985D-04  0.14171392D-06  0.10429572D-06  0.56375480D-07 -0.69122416D-04
  0.55678088D-04  0.21504710D-04 -0.37276381D-07  0.18125897D-03  0.63297615D-04
 -0.40472361D-04  0.19775741D-03 -0.21779895D-06 -0.11907387D-06  0.10658445D-05
  0.19632678D-05  0.31565312D-05  0.40735943D-05  0.34576100D-05  0.11917048D-05
 -0.26755320D-05 -0.95382964D-06  0.33595610D-05 -0.63740042D-05 -0.46910095D-05
 -0.25356546D-05  0.11541665D-05  0.84941989D-06  0.45914113D-06 -0.38197224D-08
 -0.28111613D-08 -0.15195309D-08 -0.56551160D-05 -0.10827186D-05  0.59672955D-05
  0.35865134D-09  0.87144748D-05  0.76001031D-05  0.18634211D-06  0.70024411D-05
 -0.21612088D-08  0.48503468D-08  0.10728309D-06  0.18197242D-06  0.20716917D-06
  0.53704908D-05  0.21228239D-05  0.39093575D-05  0.63164567D-05  0.82668840D-05
  0.70813270D-05  0.24360585D-05 -0.46216763D-05 -0.22847296D-05  0.60269702D-05
 -0.63373897D-05 -0.49337591D-05 -0.23427233D-05 -0.56354766D-05 -0.43873086D-05
 -0.20832493D-05  0.31636025D-08  0.24629151D-08  0.11694792D-08 -0.77506089D-05
  0.54650160D-05  0.87542092D-05 -0.31480059D-08  0.38301077D-05 -0.25047921D-05
  0.88101062D-05  0.22437106D-05  0.38430550D-08  0.73859609D-09 -0.11722420D-05
 -0.19883443D-05 -0.22636597D-05 -0.29320311D-05 -0.52641278D-05 -0.96943311D-05
 -0.15663398D-04 -0.20500021D-04 -0.17560105D-04 -0.60408796D-05 -0.36801544D-04
 -0.18192874D-04  0.47991636D-04 -0.18973930D-04 -0.14771508D-04 -0.70140344D-05
 -0.14812320D-04 -0.11531628D-04 -0.54756248D-05 -0.10135439D-08 -0.78906012D-09
 -0.37467366D-09 -0.52967526D-04  0.16435306D-04  0.20002882D-04 -0.13734703D-08
 -0.13165924D-04 -0.37585461D-04  0.42122897D-04 -0.31443731D-04  0.57772636D-07
  0.23457974D-07 -0.41591813D-05 -0.76594799D-05 -0.12375633D-04 -0.16197043D-04
 -0.13874219D-04 -0.47728920D-05 -0.32238466D-04 -0.15937113D-04  0.42041083D-04
  0.22269387D-04  0.17337073D-04  0.82322555D-05 -0.12279778D-04 -0.95600030D-05
 -0.45394276D-05 -0.52192678D-08 -0.40632834D-08 -0.19293907D-08 -0.45149943D-04
 -0.19991706D-04  0.17700249D-04  0.12345617D-07 -0.11889684D-04 -0.34470988D-04
  0.36746932D-04  0.36688610D-04 -0.14636087D-07 -0.18852159D-07  0.23666468D-05
  0.43583779D-05  0.70419512D-05  0.92164004D-05  0.78946729D-05  0.27158589D-05
  0.11189690D-06  0.55316328D-07 -0.14592093D-06  0.42389872D-05  0.33001192D-05
  0.15670133D-05 -0.57558618D-05 -0.44810303D-05 -0.21277517D-05  0.10938039D-08
  0.85154380D-09  0.40434311D-09 -0.10367473D-05 -0.37236020D-05  0.74917190D-05
 -0.12387726D-09  0.60102415D-05  0.26135338D-05  0.31286297D-05 -0.79893426D-05
  0.60202027D-09  0.45592760D-09 -0.23580489D-06 -0.43425441D-06 -0.70163683D-06
 -0.91829177D-06 -0.78659920D-06 -0.27059924D-06  0.27576454D-06  0.13632443D-06
 -0.35961511D-06  0.10358496D-05  0.80642549D-06  0.38291935D-06  0.63155739D-06
  0.49167751D-06  0.23346587D-06  0.45481137D-10  0.35407791D-10  0.16812872D-10
  0.35313312D-06  0.84935540D-07 -0.57501629D-06 -0.22591178D-09  0.36438084D-06
  0.12214313D-05 -0.36839882D-06  0.14699267D-05 -0.54000720D-09 -0.76016674D-10
  0.36873685D-07  0.62544749D-07  0.71204986D-07 -0.40098167D-07  0.20274610D-05
  0.37337388D-05  0.60327047D-05  0.78955136D-05  0.67632150D-05  0.23266243D-05
  0.52647275D-05  0.26026224D-05 -0.68655512D-05 -0.22270225D-05 -0.17337726D-05
 -0.82325655D-06  0.81748770D-06  0.63642723D-06  0.30219816D-06 -0.24728878D-09
 -0.19251826D-09 -0.91414480D-10  0.13280818D-04  0.39118461D-05 -0.25933578D-06
  0.12525098D-08  0.13439525D-05 -0.43054406D-05 -0.60232023D-05 -0.17722193D-05
  0.26639864D-08 -0.42882548D-09 -0.20428321D-06 -0.34650299D-06 -0.39448141D-06
 -0.16019645D-05 -0.76688728D-01 -0.14122870D+00 -0.22818710D+00 -0.29864787D+00
 -0.25581866D+00 -0.88004584D-01  0.20269406D-02  0.10020198D-02 -0.26432640D-02
  0.14881037D-04  0.11585125D-04  0.55010272D-05  0.95985895D-04  0.74726552D-04
  0.35482810D-04  0.83137348D-08  0.64723753D-08  0.30733127D-08 -0.17571888D-03
 -0.23808428D-04 -0.14565213D-04  0.14595003D-09  0.10844680D-02  0.10976436D-02
  0.11275987D-02 -0.13053954D-04 -0.20060452D-07 -0.54374502D-08 -0.47854790D-05
 -0.81170781D-05 -0.92410065D-05  0.15620397D-04  0.66952165D+00  0.12329801D+01
  0.19921599D+01  0.26073090D+01  0.22333938D+01  0.76831335D+00 -0.17987767D-01
 -0.88922676D-02  0.23457232D-01 -0.36796573D-04 -0.28646720D-04 -0.13602476D-04
 -0.90468630D-03 -0.70431274D-03 -0.33443260D-03 -0.80781621D-07 -0.62889782D-07
 -0.29862293D-07  0.11047918D-02  0.80877885D-06  0.34949319D-04  0.15761569D-07
 -0.98371418D-02 -0.96078624D-02 -0.94671809D-02 -0.60246846D-05  0.11429495D-06
  0.16897721D-06  0.63580896D-04  0.10784523D-03  0.12277799D-03 -0.73998426D-04
 -0.22835910D-04 -0.42054236D-04 -0.67948188D-04 -0.88929571D-04 -0.76176148D-04
 -0.26205477D-04 -0.34231880D-04 -0.16922559D-04  0.44640626D-04 -0.19437397D-04
 -0.15132324D-04 -0.71853627D-05 -0.65447834D-05 -0.50952184D-05 -0.24193899D-05
 -0.10432730D-07 -0.81220466D-08 -0.38566350D-08 -0.52945801D-04  0.21460847D-04
 -0.11501657D-04  0.64090056D-09 -0.39798674D-04 -0.10581938D-05  0.46061793D-04
  0.12037587D-04  0.71303206D-07  0.79239203D-08  0.25110555D-05  0.42592254D-05
  0.48489775D-05  0.70343425D-05
MO    2     MO 0.0        OCC NO =    1.0000000  ORB. ENERGY =  -14.507330
 -0.44985520D-06 -0.82862582D-06 -0.13322600D-05 -0.17193199D-05 -0.14593347D-05
 -0.50297641D-06  0.15893632D-05  0.56660945D-06 -0.19957013D-05  0.52567049D-05
  0.38687224D-05  0.20911797D-05  0.80073377D-06  0.58930770D-06  0.31854140D-06
 -0.72064968D-08 -0.53036904D-08 -0.28668300D-08 -0.36085388D-05  0.66459284D-06
  0.15473061D-05  0.57826381D-09 -0.23565259D-05 -0.36162401D-06 -0.54310001D-06
  0.74659610D-07  0.43555928D-08  0.86397339D-09  0.17000180D-06  0.28835523D-06
  0.32828223D-06 -0.92344852D-06  0.15781910D-06  0.29070017D-06  0.46738613D-06
  0.60317525D-06  0.51196673D-06  0.17645519D-06  0.33451429D-06  0.11925466D-06
 -0.42003653D-06  0.15307498D-05  0.11265700D-05  0.60895045D-06 -0.62603693D-05
 -0.46073788D-05 -0.24904492D-05  0.16605851D-08  0.12221236D-08  0.66060049D-09
 -0.89622493D-05 -0.75121778D-06  0.20713186D-05 -0.39096898D-08  0.83536492D-05
  0.20397733D-05 -0.58314397D-06  0.54467736D-05 -0.42675321D-08  0.78250741D-08
  0.17595973D-06  0.29846101D-06  0.33978732D-06  0.93196804D-06  0.60489395D-06
  0.11142046D-05  0.17914121D-05  0.23118688D-05  0.19622820D-05  0.67632293D-06
 -0.23939675D-05 -0.85345165D-06  0.30060115D-05 -0.17859912D-06 -0.13144173D-06
 -0.71048849D-07 -0.19568858D-04 -0.14401889D-04 -0.77847242D-05 -0.15918492D-08
 -0.11715367D-08 -0.63325653D-09  0.24518070D-04  0.12419916D-06 -0.29061777D-04
  0.35237672D-08  0.69215737D-05  0.52740225D-05 -0.27477103D-06 -0.58745793D-06
  0.10995379D-07 -0.27218339D-08  0.35909483D-06  0.60909279D-06  0.69343062D-06
  0.22752016D-04  0.16678754D-06  0.30721987D-06  0.49394642D-06  0.63745208D-06
  0.54106042D-06  0.18648266D-06  0.50636501D-06  0.18051960D-06 -0.63582277D-06
 -0.23662679D-05 -0.17414775D-05 -0.94132946D-06 -0.43887062D-05 -0.32299104D-05
 -0.17458794D-05  0.21912878D-08  0.16126993D-08  0.87172030D-09 -0.12290967D-04
  0.59254342D-06  0.57998785D-05  0.20031352D-09  0.76160272D-05  0.20064931D-05
 -0.27189297D-06 -0.60645044D-05  0.10192480D-08 -0.54290321D-08  0.11220189D-06
  0.19031564D-06  0.21666763D-06 -0.20030873D-05  0.10557885D-05  0.19447449D-05
  0.31267501D-05  0.40351610D-05  0.34249883D-05  0.11804614D-05 -0.26450851D-05
 -0.94297531D-06  0.33213301D-05  0.62308250D-05  0.45856355D-05  0.24786962D-05
  0.12817784D-05  0.94333712D-06  0.50990667D-06 -0.30026666D-08 -0.22098413D-08
 -0.11944964D-08 -0.55258343D-05  0.11972022D-05  0.60207611D-05  0.38214269D-08
  0.87060256D-05  0.74911705D-05  0.10365142D-06 -0.69153067D-05 -0.41947459D-08
  0.69938239D-08  0.10381174D-06  0.17608436D-06  0.20046582D-06  0.54728512D-05
  0.34553917D-05  0.63647742D-05  0.10233249D-04  0.13206302D-04  0.11209325D-04
  0.38634221D-05 -0.49940084D-04 -0.17803686D-04  0.62707813D-04  0.27707036D-03
  0.20391259D-03  0.11022188D-03 -0.15201522D-03 -0.11187706D-03 -0.60473459D-04
  0.48439153D-07  0.35649259D-07  0.19269670D-07 -0.70440968D-04 -0.55810121D-04
  0.23220995D-04 -0.12907580D-07  0.18336865D-03  0.64884153D-04 -0.40446234D-04
 -0.19941970D-03  0.86614584D-07 -0.32242928D-07  0.39704476D-05  0.73134986D-05
  0.11758603D-04  0.15174815D-04  0.12880171D-04  0.44392984D-05 -0.58494946D-04
 -0.20853503D-04  0.73449819D-04 -0.24362821D-03 -0.17930052D-03 -0.96918197D-04
 -0.16833256D-03 -0.12388596D-03 -0.66964691D-04 -0.87043785D-07 -0.64060709D-07
 -0.34627051D-07 -0.74899322D-04  0.48817186D-04  0.21707777D-04  0.17620256D-07
  0.19886695D-03  0.68958930D-04 -0.45472406D-04  0.16855075D-03  0.16500823D-06
  0.77358833D-07  0.12357259D-05  0.22761865D-05  0.36596401D-05  0.47228710D-05
  0.40087069D-05  0.13816467D-05 -0.73360102D-05 -0.26152945D-05  0.92115415D-05
 -0.36853979D-04 -0.27123039D-04 -0.14660950D-04 -0.15847047D-04 -0.11662786D-04
 -0.63041434D-05  0.29266168D-07  0.21538717D-07  0.11642429D-07 -0.13833475D-04
  0.70241177D-05  0.10092552D-04 -0.97440629D-08  0.29946463D-04  0.14311406D-04
 -0.45114739D-05  0.30048975D-04 -0.42007586D-07 -0.27607951D-07  0.77057686D-07
  0.14193898D-06  0.22820871D-06  0.29450991D-06  0.24997589D-06  0.86157052D-07
 -0.17961605D-06 -0.64033289D-07  0.22553686D-06 -0.10615249D-06 -0.78123941D-07
 -0.42228720D-07  0.69415843D-06  0.51087255D-06  0.27614447D-06 -0.26559833D-08
 -0.19546964D-08 -0.10565817D-08 -0.86570991D-07 -0.61274476D-06  0.89786107D-06
  0.29366290D-09  0.94988060D-06  0.37386459D-06 -0.34998662D-06  0.42061465D-06
  0.11017699D-08  0.28401736D-08 -0.29148315D-08 -0.49441058D-08 -0.56286897D-08
  0.10433325D-05  0.25111469D-06  0.46244868D-06  0.74719107D-06  0.97791249D-06
  0.83766969D-06  0.28816808D-06 -0.79123800D-06 -0.39114917D-06  0.10318264D-05
 -0.25361294D-05 -0.19744172D-05 -0.93752313D-06 -0.65949630D-06 -0.51342840D-06
 -0.24379397D-06  0.19140982D-08  0.14901560D-08  0.70757880D-09 -0.14414204D-05
  0.11838110D-05  0.14406220D-05 -0.10568368D-08  0.12640082D-05  0.67448813D-06
  0.16690598D-05 -0.98699256D-06  0.81294370D-09  0.49104200D-09 -0.23427411D-06
 -0.39737323D-06 -0.45239538D-06 -0.72231221D-06  0.12059278D-05  0.22208168D-05