 Generated by Multiwfn
GAUSSIAN            157 MOL ORBITALS    720 PRIMITIVES       36 NUCLEI
  C    1    (CENTRE  1)  -6.44225706  2.88103466 -0.00002791  CHARGE =  6.0
  C    2    (CENTRE  2)  -5.34615479  0.43358942 -0.00001602  CHARGE =  6.0
  C    3    (CENTRE  3)  -2.67917474  0.21727224  0.00000159  CHARGE =  6.0
  C    4    (CENTRE  4)  -1.15149099  2.42890274  0.00000591  CHARGE =  6.0
  C    5    (CENTRE  5)  -2.29760039  4.84639769  0.00000087  CHARGE =  6.0
  C    6    (CENTRE  6)  -4.97481798  5.00536725 -0.00001740  CHARGE =  6.0
  C    7    (CENTRE  7)  -1.52785684 -2.21144246  0.00001153  CHARGE =  6.0
  C    8    (CENTRE  8)   1.52785690  2.21144286  0.00001020  CHARGE =  6.0
  C    9    (CENTRE  9)   2.67917440 -0.21727209  0.00000261  CHARGE =  6.0
  C   10    (CENTRE 10)   1.15149081 -2.42890274  0.00000527  CHARGE =  6.0
  C   11    (CENTRE 11)   5.34615453 -0.43358982 -0.00001268  CHARGE =  6.0
  C   12    (CENTRE 12)   6.82232196  1.80545673 -0.00000246  CHARGE =  6.0
  C   13    (CENTRE 13)   5.71641182  4.13835465  0.00001410  CHARGE =  6.0
  C   14    (CENTRE 14)   3.04856174  4.41286020  0.00001597  CHARGE =  6.0
  C   15    (CENTRE 15)   1.84748758  6.81058413  0.00001761  CHARGE =  6.0
  C   16    (CENTRE 16)  -0.72599478  7.01938046  0.00000964  CHARGE =  6.0
  H   17    (CENTRE 17)  -1.60598534  8.86647269  0.00001349  CHARGE =  1.0
  H   18    (CENTRE 18)   3.01374000  8.49170567  0.00002615  CHARGE =  1.0
  H   19    (CENTRE 19)  -8.48185541  3.04172560 -0.00004231  CHARGE =  1.0
  H   20    (CENTRE 20)  -5.84767316  6.85588572 -0.00002279  CHARGE =  1.0
  H   21    (CENTRE 21)   8.86132037  1.63623483 -0.00000089  CHARGE =  1.0
  H   22    (CENTRE 22)   6.87585595  5.82417789  0.00002629  CHARGE =  1.0
  C   23    (CENTRE 23)  -6.82232177 -1.80545712 -0.00001625  CHARGE =  6.0
  C   24    (CENTRE 24)  -5.71641163 -4.13835501  0.00000680  CHARGE =  6.0
  C   25    (CENTRE 25)  -3.04856181 -4.41286023  0.00002107  CHARGE =  6.0
  H   26    (CENTRE 26)  -8.86132015 -1.63623368 -0.00003815  CHARGE =  1.0
  H   27    (CENTRE 27)  -6.87585584 -5.82417823  0.00001345  CHARGE =  1.0
  C   28    (CENTRE 28)  -1.84748731 -6.81058413  0.00003112  CHARGE =  6.0
  C   29    (CENTRE 29)   0.72599463 -7.01938045  0.00001602  CHARGE =  6.0
  C   30    (CENTRE 30)   2.29760086 -4.84639754 -0.00000176  CHARGE =  6.0
  H   31    (CENTRE 31)  -3.01374034 -8.49170529  0.00005503  CHARGE =  1.0
  H   32    (CENTRE 32)   1.60598570 -8.86647245  0.00001984  CHARGE =  1.0
  C   33    (CENTRE 33)   6.44225720 -2.88103442 -0.00003585  CHARGE =  6.0
  H   34    (CENTRE 34)   8.48185545 -3.04172550 -0.00006661  CHARGE =  1.0
  C   35    (CENTRE 35)   4.97481783 -5.00536721 -0.00002984  CHARGE =  6.0
  H   36    (CENTRE 36)   5.84767208 -6.85588616 -0.00004458  CHARGE =  1.0
CENTRE ASSIGNMENTS    1  1  1  1  1  1  1  1  1  1  1  1  1  1  1  1  1  1  1  1
CENTRE ASSIGNMENTS    1  1  1  1  1  1  1  1  2  2  2  2  2  2  2  2  2  2  2  2
CENTRE ASSIGNMENTS    2  2  2  2  2  2  2  2  2  2  2  2  2  2  2  2  3  3  3  3
CENTRE ASSIGNMENTS    3  3  3  3  3  3  3  3  3  3  3  3  3  3  3  3  3  3  3  3
CENTRE ASSIGNMENTS    3  3  3  3  4  4  4  4  4  4  4  4  4  4  4  4  4  4  4  4
CENTRE ASSIGNMENTS    4  4  4  4  4  4  4  4  4  4  4  4  5  5  5  5  5  5  5  5
CENTRE ASSIGNMENTS    5  5  5  5  5  5  5  5  5  5  5  5  5  5  5  5  5  5  5  5
CENTRE ASSIGNMENTS    6  6  6  6  6  6  6  6  6  6  6  6  6  6  6  6  6  6  6  6
CENTRE ASSIGNMENTS    6  6  6  6  6  6  6  6  7  7  7  7  7  7  7  7  7  7  7  7
CENTRE ASSIGNMENTS    7  7  7  7  7  7  7  7  7  7  7  7  7  7  7  7  8  8  8  8
CENTRE ASSIGNMENTS    8  8  8  8  8  8  8  8  8  8  8  8  8  8  8  8  8  8  8  8
CENTRE ASSIGNMENTS    8  8  8  8  9  9  9  9  9  9  9  9  9  9  9  9  9  9  9  9
CENTRE ASSIGNMENTS    9  9  9  9  9  9  9  9  9  9  9  9 10 10 10 10 10 10 10 10
CENTRE ASSIGNMENTS   10 10 10 10 10 10 10 10 10 10 10 10 10 10 10 10 10 10 10 10
CENTRE ASSIGNMENTS   11 11 11 11 11 11 11 11 11 11 11 11 11 11 11 11 11 11 11 11
CENTRE ASSIGNMENTS   11 11 11 11 11 11 11 11 12 12 12 12 12 12 12 12 12 12 12 12
CENTRE ASSIGNMENTS   12 12 12 12 12 12 12 12 12 12 12 12 12 12 12 12 13 13 13 13
CENTRE ASSIGNMENTS   13 13 13 13 13 13 13 13 13 13 13 13 13 13 13 13 13 13 13 13
CENTRE ASSIGNMENTS   13 13 13 13 14 14 14 14 14 14 14 14 14 14 14 14 14 14 14 14
CENTRE ASSIGNMENTS   14 14 14 14 14 14 14 14 14 14 14 14 15 15 15 15 15 15 15 15
CENTRE ASSIGNMENTS   15 15 15 15 15 15 15 15 15 15 15 15 15 15 15 15 15 15 15 15
CENTRE ASSIGNMENTS   16 16 16 16 16 16 16 16 16 16 16 16 16 16 16 16 16 16 16 16
CENTRE ASSIGNMENTS   16 16 16 16 16 16 16 16 17 17 17 17 18 18 18 18 19 19 19 19
CENTRE ASSIGNMENTS   20 20 20 20 21 21 21 21 22 22 22 22 23 23 23 23 23 23 23 23
CENTRE ASSIGNMENTS   23 23 23 23 23 23 23 23 23 23 23 23 23 23 23 23 23 23 23 23
CENTRE ASSIGNMENTS   24 24 24 24 24 24 24 24 24 24 24 24 24 24 24 24 24 24 24 24
CENTRE ASSIGNMENTS   24 24 24 24 24 24 24 24 25 25 25 25 25 25 25 25 25 25 25 25
CENTRE ASSIGNMENTS   25 25 25 25 25 25 25 25 25 25 25 25 25 25 25 25 26 26 26 26
CENTRE ASSIGNMENTS   27 27 27 27 28 28 28 28 28 28 28 28 28 28 28 28 28 28 28 28
CENTRE ASSIGNMENTS   28 28 28 28 28 28 28 28 28 28 28 28 29 29 29 29 29 29 29 29
CENTRE ASSIGNMENTS   29 29 29 29 29 29 29 29 29 29 29 29 29 29 29 29 29 29 29 29
CENTRE ASSIGNMENTS   30 30 30 30 30 30 30 30 30 30 30 30 30 30 30 30 30 30 30 30
CENTRE ASSIGNMENTS   30 30 30 30 30 30 30 30 31 31 31 31 32 32 32 32 33 33 33 33
CENTRE ASSIGNMENTS   33 33 33 33 33 33 33 33 33 33 33 33 33 33 33 33 33 33 33 33
CENTRE ASSIGNMENTS   33 33 33 33 34 34 34 34 35 35 35 35 35 35 35 35 35 35 35 35
CENTRE ASSIGNMENTS   35 35 35 35 35 35 35 35 35 35 35 35 35 35 35 35 36 36 36 36
TYPE ASSIGNMENTS      1  1  1  1  1  1  1  1  1  2  2  2  3  3  3  4  4  4  1  2
TYPE ASSIGNMENTS      3  4  5  6  7  8  9 10  1  1  1  1  1  1  1  1  1  2  2  2
TYPE ASSIGNMENTS      3  3  3  4  4  4  1  2  3  4  5  6  7  8  9 10  1  1  1  1
TYPE ASSIGNMENTS      1  1  1  1  1  2  2  2  3  3  3  4  4  4  1  2  3  4  5  6
TYPE ASSIGNMENTS      7  8  9 10  1  1  1  1  1  1  1  1  1  2  2  2  3  3  3  4
TYPE ASSIGNMENTS      4  4  1  2  3  4  5  6  7  8  9 10  1  1  1  1  1  1  1  1
TYPE ASSIGNMENTS      1  2  2  2  3  3  3  4  4  4  1  2  3  4  5  6  7  8  9 10
TYPE ASSIGNMENTS      1  1  1  1  1  1  1  1  1  2  2  2  3  3  3  4  4  4  1  2
TYPE ASSIGNMENTS      3  4  5  6  7  8  9 10  1  1  1  1  1  1  1  1  1  2  2  2
TYPE ASSIGNMENTS      3  3  3  4  4  4  1  2  3  4  5  6  7  8  9 10  1  1  1  1
TYPE ASSIGNMENTS      1  1  1  1  1  2  2  2  3  3  3  4  4  4  1  2  3  4  5  6
TYPE ASSIGNMENTS      7  8  9 10  1  1  1  1  1  1  1  1  1  2  2  2  3  3  3  4
TYPE ASSIGNMENTS      4  4  1  2  3  4  5  6  7  8  9 10  1  1  1  1  1  1  1  1
TYPE ASSIGNMENTS      1  2  2  2  3  3  3  4  4  4  1  2  3  4  5  6  7  8  9 10
TYPE ASSIGNMENTS      1  1  1  1  1  1  1  1  1  2  2  2  3  3  3  4  4  4  1  2
TYPE ASSIGNMENTS      3  4  5  6  7  8  9 10  1  1  1  1  1  1  1  1  1  2  2  2
TYPE ASSIGNMENTS      3  3  3  4  4  4  1  2  3  4  5  6  7  8  9 10  1  1  1  1
TYPE ASSIGNMENTS      1  1  1  1  1  2  2  2  3  3  3  4  4  4  1  2  3  4  5  6
TYPE ASSIGNMENTS      7  8  9 10  1  1  1  1  1  1  1  1  1  2  2  2  3  3  3  4
TYPE ASSIGNMENTS      4  4  1  2  3  4  5  6  7  8  9 10  1  1  1  1  1  1  1  1
TYPE ASSIGNMENTS      1  2  2  2  3  3  3  4  4  4  1  2  3  4  5  6  7  8  9 10
TYPE ASSIGNMENTS      1  1  1  1  1  1  1  1  1  2  2  2  3  3  3  4  4  4  1  2
TYPE ASSIGNMENTS      3  4  5  6  7  8  9 10  1  1  1  1  1  1  1  1  1  1  1  1
TYPE ASSIGNMENTS      1  1  1  1  1  1  1  1  1  1  1  1  1  1  1  1  1  1  1  1
TYPE ASSIGNMENTS      1  2  2  2  3  3  3  4  4  4  1  2  3  4  5  6  7  8  9 10
TYPE ASSIGNMENTS      1  1  1  1  1  1  1  1  1  2  2  2  3  3  3  4  4  4  1  2
TYPE ASSIGNMENTS      3  4  5  6  7  8  9 10  1  1  1  1  1  1  1  1  1  2  2  2
TYPE ASSIGNMENTS      3  3  3  4  4  4  1  2  3  4  5  6  7  8  9 10  1  1  1  1
TYPE ASSIGNMENTS      1  1  1  1  1  1  1  1  1  1  1  1  1  2  2  2  3  3  3  4
TYPE ASSIGNMENTS      4  4  1  2  3  4  5  6  7  8  9 10  1  1  1  1  1  1  1  1
TYPE ASSIGNMENTS      1  2  2  2  3  3  3  4  4  4  1  2  3  4  5  6  7  8  9 10
TYPE ASSIGNMENTS      1  1  1  1  1  1  1  1  1  2  2  2  3  3  3  4  4  4  1  2
TYPE ASSIGNMENTS      3  4  5  6  7  8  9 10  1  1  1  1  1  1  1  1  1  1  1  1
TYPE ASSIGNMENTS      1  1  1  1  1  2  2  2  3  3  3  4  4  4  1  2  3  4  5  6
TYPE ASSIGNMENTS      7  8  9 10  1  1  1  1  1  1  1  1  1  1  1  1  1  2  2  2
TYPE ASSIGNMENTS      3  3  3  4  4  4  1  2  3  4  5  6  7  8  9 10  1  1  1  1
EXPONENTS  0.3047525D+04 0.4573695D+03 0.1039487D+03 0.2921016D+02 0.9286663D+01
EXPONENTS  0.3163927D+01 0.7868272D+01 0.1881289D+01 0.5442493D+00 0.7868272D+01
EXPONENTS  0.1881289D+01 0.5442493D+00 0.7868272D+01 0.1881289D+01 0.5442493D+00
EXPONENTS  0.7868272D+01 0.1881289D+01 0.5442493D+00 0.1687145D+00 0.1687145D+00
EXPONENTS  0.1687145D+00 0.1687145D+00 0.8000000D+00 0.8000000D+00 0.8000000D+00
EXPONENTS  0.8000000D+00 0.8000000D+00 0.8000000D+00 0.3047525D+04 0.4573695D+03
EXPONENTS  0.1039487D+03 0.2921016D+02 0.9286663D+01 0.3163927D+01 0.7868272D+01
EXPONENTS  0.1881289D+01 0.5442493D+00 0.7868272D+01 0.1881289D+01 0.5442493D+00
EXPONENTS  0.7868272D+01 0.1881289D+01 0.5442493D+00 0.7868272D+01 0.1881289D+01
EXPONENTS  0.5442493D+00 0.1687145D+00 0.1687145D+00 0.1687145D+00 0.1687145D+00
EXPONENTS  0.8000000D+00 0.8000000D+00 0.8000000D+00 0.8000000D+00 0.8000000D+00
EXPONENTS  0.8000000D+00 0.3047525D+04 0.4573695D+03 0.1039487D+03 0.2921016D+02
EXPONENTS  0.9286663D+01 0.3163927D+01 0.7868272D+01 0.1881289D+01 0.5442493D+00
EXPONENTS  0.7868272D+01 0.1881289D+01 0.5442493D+00 0.7868272D+01 0.1881289D+01
EXPONENTS  0.5442493D+00 0.7868272D+01 0.1881289D+01 0.5442493D+00 0.1687145D+00
EXPONENTS  0.1687145D+00 0.1687145D+00 0.1687145D+00 0.8000000D+00 0.8000000D+00
EXPONENTS  0.8000000D+00 0.8000000D+00 0.8000000D+00 0.8000000D+00 0.3047525D+04
EXPONENTS  0.4573695D+03 0.1039487D+03 0.2921016D+02 0.9286663D+01 0.3163927D+01
EXPONENTS  0.7868272D+01 0.1881289D+01 0.5442493D+00 0.7868272D+01 0.1881289D+01
EXPONENTS  0.5442493D+00 0.7868272D+01 0.1881289D+01 0.5442493D+00 0.7868272D+01
EXPONENTS  0.1881289D+01 0.5442493D+00 0.1687145D+00 0.1687145D+00 0.1687145D+00
EXPONENTS  0.1687145D+00 0.8000000D+00 0.8000000D+00 0.8000000D+00 0.8000000D+00
EXPONENTS  0.8000000D+00 0.8000000D+00 0.3047525D+04 0.4573695D+03 0.1039487D+03
EXPONENTS  0.2921016D+02 0.9286663D+01 0.3163927D+01 0.7868272D+01 0.1881289D+01
EXPONENTS  0.5442493D+00 0.7868272D+01 0.1881289D+01 0.5442493D+00 0.7868272D+01
EXPONENTS  0.1881289D+01 0.5442493D+00 0.7868272D+01 0.1881289D+01 0.5442493D+00
EXPONENTS  0.1687145D+00 0.1687145D+00 0.1687145D+00 0.1687145D+00 0.8000000D+00
EXPONENTS  0.8000000D+00 0.8000000D+00 0.8000000D+00 0.8000000D+00 0.8000000D+00
EXPONENTS  0.3047525D+04 0.4573695D+03 0.1039487D+03 0.2921016D+02 0.9286663D+01
EXPONENTS  0.3163927D+01 0.7868272D+01 0.1881289D+01 0.5442493D+00 0.7868272D+01
EXPONENTS  0.1881289D+01 0.5442493D+00 0.7868272D+01 0.1881289D+01 0.5442493D+00
EXPONENTS  0.7868272D+01 0.1881289D+01 0.5442493D+00 0.1687145D+00 0.1687145D+00
EXPONENTS  0.1687145D+00 0.1687145D+00 0.8000000D+00 0.8000000D+00 0.8000000D+00
EXPONENTS  0.8000000D+00 0.8000000D+00 0.8000000D+00 0.3047525D+04 0.4573695D+03
EXPONENTS  0.1039487D+03 0.2921016D+02 0.9286663D+01 0.3163927D+01 0.7868272D+01
EXPONENTS  0.1881289D+01 0.5442493D+00 0.7868272D+01 0.1881289D+01 0.5442493D+00
EXPONENTS  0.7868272D+01 0.1881289D+01 0.5442493D+00 0.7868272D+01 0.1881289D+01
EXPONENTS  0.5442493D+00 0.1687145D+00 0.1687145D+00 0.1687145D+00 0.1687145D+00
EXPONENTS  0.8000000D+00 0.8000000D+00 0.8000000D+00 0.8000000D+00 0.8000000D+00
EXPONENTS  0.8000000D+00 0.3047525D+04 0.4573695D+03 0.1039487D+03 0.2921016D+02
EXPONENTS  0.9286663D+01 0.3163927D+01 0.7868272D+01 0.1881289D+01 0.5442493D+00
EXPONENTS  0.7868272D+01 0.1881289D+01 0.5442493D+00 0.7868272D+01 0.1881289D+01
EXPONENTS  0.5442493D+00 0.7868272D+01 0.1881289D+01 0.5442493D+00 0.1687145D+00
EXPONENTS  0.1687145D+00 0.1687145D+00 0.1687145D+00 0.8000000D+00 0.8000000D+00
EXPONENTS  0.8000000D+00 0.8000000D+00 0.8000000D+00 0.8000000D+00 0.3047525D+04
EXPONENTS  0.4573695D+03 0.1039487D+03 0.2921016D+02 0.9286663D+01 0.3163927D+01
EXPONENTS  0.7868272D+01 0.1881289D+01 0.5442493D+00 0.7868272D+01 0.1881289D+01
EXPONENTS  0.5442493D+00 0.7868272D+01 0.1881289D+01 0.5442493D+00 0.7868272D+01
EXPONENTS  0.1881289D+01 0.5442493D+00 0.1687145D+00 0.1687145D+00 0.1687145D+00
EXPONENTS  0.1687145D+00 0.8000000D+00 0.8000000D+00 0.8000000D+00 0.8000000D+00
EXPONENTS  0.8000000D+00 0.8000000D+00 0.3047525D+04 0.4573695D+03 0.1039487D+03
EXPONENTS  0.2921016D+02 0.9286663D+01 0.3163927D+01 0.7868272D+01 0.1881289D+01
EXPONENTS  0.5442493D+00 0.7868272D+01 0.1881289D+01 0.5442493D+00 0.7868272D+01
EXPONENTS  0.1881289D+01 0.5442493D+00 0.7868272D+01 0.1881289D+01 0.5442493D+00
EXPONENTS  0.1687145D+00 0.1687145D+00 0.1687145D+00 0.1687145D+00 0.8000000D+00
EXPONENTS  0.8000000D+00 0.8000000D+00 0.8000000D+00 0.8000000D+00 0.8000000D+00
EXPONENTS  0.3047525D+04 0.4573695D+03 0.1039487D+03 0.2921016D+02 0.9286663D+01
EXPONENTS  0.3163927D+01 0.7868272D+01 0.1881289D+01 0.5442493D+00 0.7868272D+01
EXPONENTS  0.1881289D+01 0.5442493D+00 0.7868272D+01 0.1881289D+01 0.5442493D+00
EXPONENTS  0.7868272D+01 0.1881289D+01 0.5442493D+00 0.1687145D+00 0.1687145D+00
EXPONENTS  0.1687145D+00 0.1687145D+00 0.8000000D+00 0.8000000D+00 0.8000000D+00
EXPONENTS  0.8000000D+00 0.8000000D+00 0.8000000D+00 0.3047525D+04 0.4573695D+03
EXPONENTS  0.1039487D+03 0.2921016D+02 0.9286663D+01 0.3163927D+01 0.7868272D+01
EXPONENTS  0.1881289D+01 0.5442493D+00 0.7868272D+01 0.1881289D+01 0.5442493D+00
EXPONENTS  0.7868272D+01 0.1881289D+01 0.5442493D+00 0.7868272D+01 0.1881289D+01
EXPONENTS  0.5442493D+00 0.1687145D+00 0.1687145D+00 0.1687145D+00 0.1687145D+00
EXPONENTS  0.8000000D+00 0.8000000D+00 0.8000000D+00 0.8000000D+00 0.8000000D+00
EXPONENTS  0.8000000D+00 0.3047525D+04 0.4573695D+03 0.1039487D+03 0.2921016D+02
EXPONENTS  0.9286663D+01 0.3163927D+01 0.7868272D+01 0.1881289D+01 0.5442493D+00
EXPONENTS  0.7868272D+01 0.1881289D+01 0.5442493D+00 0.7868272D+01 0.1881289D+01
EXPONENTS  0.5442493D+00 0.7868272D+01 0.1881289D+01 0.5442493D+00 0.1687145D+00
EXPONENTS  0.1687145D+00 0.1687145D+00 0.1687145D+00 0.8000000D+00 0.8000000D+00
EXPONENTS  0.8000000D+00 0.8000000D+00 0.8000000D+00 0.8000000D+00 0.3047525D+04
EXPONENTS  0.4573695D+03 0.1039487D+03 0.2921016D+02 0.9286663D+01 0.3163927D+01
EXPONENTS  0.7868272D+01 0.1881289D+01 0.5442493D+00 0.7868272D+01 0.1881289D+01
EXPONENTS  0.5442493D+00 0.7868272D+01 0.1881289D+01 0.5442493D+00 0.7868272D+01
EXPONENTS  0.1881289D+01 0.5442493D+00 0.1687145D+00 0.1687145D+00 0.1687145D+00
EXPONENTS  0.1687145D+00 0.8000000D+00 0.8000000D+00 0.8000000D+00 0.8000000D+00
EXPONENTS  0.8000000D+00 0.8000000D+00 0.3047525D+04 0.4573695D+03 0.1039487D+03
EXPONENTS  0.2921016D+02 0.9286663D+01 0.3163927D+01 0.7868272D+01 0.1881289D+01
EXPONENTS  0.5442493D+00 0.7868272D+01 0.1881289D+01 0.5442493D+00 0.7868272D+01
EXPONENTS  0.1881289D+01 0.5442493D+00 0.7868272D+01 0.1881289D+01 0.5442493D+00
EXPONENTS  0.1687145D+00 0.1687145D+00 0.1687145D+00 0.1687145D+00 0.8000000D+00
EXPONENTS  0.8000000D+00 0.8000000D+00 0.8000000D+00 0.8000000D+00 0.8000000D+00
EXPONENTS  0.3047525D+04 0.4573695D+03 0.1039487D+03 0.2921016D+02 0.9286663D+01
EXPONENTS  0.3163927D+01 0.7868272D+01 0.1881289D+01 0.5442493D+00 0.7868272D+01
EXPONENTS  0.1881289D+01 0.5442493D+00 0.7868272D+01 0.1881289D+01 0.5442493D+00
EXPONENTS  0.7868272D+01 0.1881289D+01 0.5442493D+00 0.1687145D+00 0.1687145D+00
EXPONENTS  0.1687145D+00 0.1687145D+00 0.8000000D+00 0.8000000D+00 0.8000000D+00
EXPONENTS  0.8000000D+00 0.8000000D+00 0.8000000D+00 0.1873114D+02 0.2825394D+01
EXPONENTS  0.6401217D+00 0.1612778D+00 0.1873114D+02 0.2825394D+01 0.6401217D+00
EXPONENTS  0.1612778D+00 0.1873114D+02 0.2825394D+01 0.6401217D+00 0.1612778D+00
EXPONENTS  0.1873114D+02 0.2825394D+01 0.6401217D+00 0.1612778D+00 0.1873114D+02
EXPONENTS  0.2825394D+01 0.6401217D+00 0.1612778D+00 0.1873114D+02 0.2825394D+01
EXPONENTS  0.6401217D+00 0.1612778D+00 0.3047525D+04 0.4573695D+03 0.1039487D+03
EXPONENTS  0.2921016D+02 0.9286663D+01 0.3163927D+01 0.7868272D+01 0.1881289D+01
EXPONENTS  0.5442493D+00 0.7868272D+01 0.1881289D+01 0.5442493D+00 0.7868272D+01
EXPONENTS  0.1881289D+01 0.5442493D+00 0.7868272D+01 0.1881289D+01 0.5442493D+00
EXPONENTS  0.1687145D+00 0.1687145D+00 0.1687145D+00 0.1687145D+00 0.8000000D+00
EXPONENTS  0.8000000D+00 0.8000000D+00 0.8000000D+00 0.8000000D+00 0.8000000D+00
EXPONENTS  0.3047525D+04 0.4573695D+03 0.1039487D+03 0.2921016D+02 0.9286663D+01
EXPONENTS  0.3163927D+01 0.7868272D+01 0.1881289D+01 0.5442493D+00 0.7868272D+01
EXPONENTS  0.1881289D+01 0.5442493D+00 0.7868272D+01 0.1881289D+01 0.5442493D+00
EXPONENTS  0.7868272D+01 0.1881289D+01 0.5442493D+00 0.1687145D+00 0.1687145D+00
EXPONENTS  0.1687145D+00 0.1687145D+00 0.8000000D+00 0.8000000D+00 0.8000000D+00
EXPONENTS  0.8000000D+00 0.8000000D+00 0.8000000D+00 0.3047525D+04 0.4573695D+03
EXPONENTS  0.1039487D+03 0.2921016D+02 0.9286663D+01 0.3163927D+01 0.7868272D+01
EXPONENTS  0.1881289D+01 0.5442493D+00 0.7868272D+01 0.1881289D+01 0.5442493D+00
EXPONENTS  0.7868272D+01 0.1881289D+01 0.5442493D+00 0.7868272D+01 0.1881289D+01
EXPONENTS  0.5442493D+00 0.1687145D+00 0.1687145D+00 0.1687145D+00 0.1687145D+00
EXPONENTS  0.8000000D+00 0.8000000D+00 0.8000000D+00 0.8000000D+00 0.8000000D+00
EXPONENTS  0.8000000D+00 0.1873114D+02 0.2825394D+01 0.6401217D+00 0.1612778D+00
EXPONENTS  0.1873114D+02 0.2825394D+01 0.6401217D+00 0.1612778D+00 0.3047525D+04
EXPONENTS  0.4573695D+03 0.1039487D+03 0.2921016D+02 0.9286663D+01 0.3163927D+01
EXPONENTS  0.7868272D+01 0.1881289D+01 0.5442493D+00 0.7868272D+01 0.1881289D+01
EXPONENTS  0.5442493D+00 0.7868272D+01 0.1881289D+01 0.5442493D+00 0.7868272D+01
EXPONENTS  0.1881289D+01 0.5442493D+00 0.1687145D+00 0.1687145D+00 0.1687145D+00
EXPONENTS  0.1687145D+00 0.8000000D+00 0.8000000D+00 0.8000000D+00 0.8000000D+00
EXPONENTS  0.8000000D+00 0.8000000D+00 0.3047525D+04 0.4573695D+03 0.1039487D+03
EXPONENTS  0.2921016D+02 0.9286663D+01 0.3163927D+01 0.7868272D+01 0.1881289D+01
EXPONENTS  0.5442493D+00 0.7868272D+01 0.1881289D+01 0.5442493D+00 0.7868272D+01
EXPONENTS  0.1881289D+01 0.5442493D+00 0.7868272D+01 0.1881289D+01 0.5442493D+00
EXPONENTS  0.1687145D+00 0.1687145D+00 0.1687145D+00 0.1687145D+00 0.8000000D+00
EXPONENTS  0.8000000D+00 0.8000000D+00 0.8000000D+00 0.8000000D+00 0.8000000D+00
EXPONENTS  0.3047525D+04 0.4573695D+03 0.1039487D+03 0.2921016D+02 0.9286663D+01
EXPONENTS  0.3163927D+01 0.7868272D+01 0.1881289D+01 0.5442493D+00 0.7868272D+01
EXPONENTS  0.1881289D+01 0.5442493D+00 0.7868272D+01 0.1881289D+01 0.5442493D+00
EXPONENTS  0.7868272D+01 0.1881289D+01 0.5442493D+00 0.1687145D+00 0.1687145D+00
EXPONENTS  0.1687145D+00 0.1687145D+00 0.8000000D+00 0.8000000D+00 0.8000000D+00
EXPONENTS  0.8000000D+00 0.8000000D+00 0.8000000D+00 0.1873114D+02 0.2825394D+01
EXPONENTS  0.6401217D+00 0.1612778D+00 0.1873114D+02 0.2825394D+01 0.6401217D+00
EXPONENTS  0.1612778D+00 0.3047525D+04 0.4573695D+03 0.1039487D+03 0.2921016D+02
EXPONENTS  0.9286663D+01 0.3163927D+01 0.7868272D+01 0.1881289D+01 0.5442493D+00
EXPONENTS  0.7868272D+01 0.1881289D+01 0.5442493D+00 0.7868272D+01 0.1881289D+01
EXPONENTS  0.5442493D+00 0.7868272D+01 0.1881289D+01 0.5442493D+00 0.1687145D+00
EXPONENTS  0.1687145D+00 0.1687145D+00 0.1687145D+00 0.8000000D+00 0.8000000D+00
EXPONENTS  0.8000000D+00 0.8000000D+00 0.8000000D+00 0.8000000D+00 0.1873114D+02
EXPONENTS  0.2825394D+01 0.6401217D+00 0.1612778D+00 0.3047525D+04 0.4573695D+03
EXPONENTS  0.1039487D+03 0.2921016D+02 0.9286663D+01 0.3163927D+01 0.7868272D+01
EXPONENTS  0.1881289D+01 0.5442493D+00 0.7868272D+01 0.1881289D+01 0.5442493D+00
EXPONENTS  0.7868272D+01 0.1881289D+01 0.5442493D+00 0.7868272D+01 0.1881289D+01
EXPONENTS  0.5442493D+00 0.1687145D+00 0.1687145D+00 0.1687145D+00 0.1687145D+00
EXPONENTS  0.8000000D+00 0.8000000D+00 0.8000000D+00 0.8000000D+00 0.8000000D+00
EXPONENTS  0.8000000D+00 0.1873114D+02 0.2825394D+01 0.6401217D+00 0.1612778D+00
MO    1     MO 0.0        OCC NO =    1.0000000  ORB. ENERGY =  -10.056455
 -0.25707196D-02 -0.47424757D-02 -0.76558262D-02 -0.99656110D-02 -0.85036739D-02
 -0.29361142D-02  0.83870308D-04  0.38655748D-04 -0.10839475D-03 -0.53951140D-04
 -0.41366312D-04 -0.20644689D-04  0.19473118D-04  0.14930752D-04  0.74514915D-05
  0.24073813D-09  0.18458273D-09  0.92119716D-10 -0.96774687D-04  0.55474269D-04
  0.11919760D-03  0.39487319D-09  0.11060226D-04 -0.74174572D-05  0.52078459D-04
  0.18514208D-04  0.16743746D-09  0.19999022D-12 -0.94896817D-02 -0.17506610D-01
 -0.28261096D-01 -0.36787550D-01 -0.31390883D-01 -0.10838518D-01  0.15315082D-03
  0.70587075D-04 -0.19793353D-03 -0.17724471D-03 -0.13590000D-03 -0.67823626D-04
 -0.31672443D-03 -0.24284420D-03 -0.12119628D-03  0.12387642D-09  0.94980585D-10
  0.47401969D-10 -0.15885967D-02 -0.27379621D-03  0.64964408D-03 -0.46919352D-08
  0.40678248D-03  0.44293231D-03  0.36661692D-03  0.14642978D-03  0.34329782D-09
  0.85372864D-09 -0.40500961D-03 -0.74716365D-03 -0.12061538D-02 -0.15700539D-02
 -0.13397298D-02 -0.46257651D-03  0.36842714D-04  0.16980773D-04 -0.47615860D-04
  0.61902920D-04  0.47463233D-04  0.23687480D-04 -0.89181996D-05 -0.68379098D-05
 -0.34125962D-05  0.22815834D-09  0.17493734D-09  0.87305994D-10  0.52350512D-03
 -0.71670473D-03 -0.23561701D-03 -0.27873796D-08 -0.21059193D-04 -0.16312406D-04
 -0.11346701D-04  0.20645628D-05  0.30315527D-09  0.15934754D-09 -0.17275245D-03
 -0.31869454D-03 -0.51447181D-03 -0.66968943D-03 -0.57144720D-03 -0.19730699D-03
  0.48862146D-04  0.22520518D-04 -0.63149884D-04 -0.32191367D-04 -0.24682298D-04
 -0.12318197D-04  0.63250065D-05  0.48496138D-05  0.24202972D-05 -0.41071347D-09
 -0.31490904D-09 -0.15716168D-09  0.82984002D-03  0.44408102D-03 -0.36327325D-03
  0.15768257D-08  0.70231994D-04  0.36686073D-04 -0.58641426D-05 -0.21759468D-05
  0.14591015D-09 -0.79358766D-10  0.28214365D-04  0.52049994D-04  0.84024829D-04
  0.10937536D-03  0.93330194D-04  0.32224673D-04  0.68416568D-05  0.31533134D-05
 -0.88422199D-05  0.12637165D-04  0.96893770D-05  0.48356782D-05 -0.15529314D-04
 -0.11906893D-04 -0.59423741D-05 -0.21510154D-10 -0.16492622D-10 -0.82309740D-11
  0.24585312D-03 -0.58509647D-04 -0.17329123D-03 -0.33118073D-09  0.32785839D-06
  0.18012200D-04  0.21303808D-05  0.19617323D-04  0.64447503D-10  0.54125081D-10
 -0.79900523D-04 -0.14740086D-03 -0.23795070D-03 -0.30974110D-03 -0.26430265D-03
 -0.91257352D-04 -0.19047065D-04 -0.87787749D-05  0.24616601D-04 -0.35088350D-04
 -0.26903521D-04 -0.13426743D-04 -0.13728649D-04 -0.10526257D-04 -0.52533401D-05
 -0.64282470D-09 -0.49287721D-09 -0.24598027D-09 -0.19624933D-03  0.40080782D-05
  0.10796683D-03  0.11387204D-09  0.13473622D-04 -0.10730229D-04  0.17693337D-04
  0.15879498D-04 -0.28132682D-10  0.10506503D-09  0.35000903D-03  0.64569832D-03
  0.10423573D-02  0.13568395D-02  0.11577936D-02  0.39975831D-03 -0.52027041D-05
 -0.23979216D-05  0.67240223D-05 -0.91421406D-04 -0.70096136D-04 -0.34982884D-04
  0.10555602D-05  0.80933663D-06  0.40391570D-06 -0.68433508D-09 -0.52470473D-09
 -0.26186443D-09  0.22555511D-03  0.72636040D-03  0.15704024D-03 -0.10953271D-09
  0.46434548D-04  0.71783323D-05  0.43996727D-05  0.60217490D-05 -0.52065406D-09
  0.14869412D-09 -0.37080214D-03 -0.68405755D-03 -0.11042810D-02 -0.14374457D-02
 -0.12265750D-02 -0.42350689D-03  0.79369150D-05  0.36581169D-05 -0.10257742D-04
 -0.96892650D-04 -0.74291139D-04 -0.37076485D-04  0.19750708D-05  0.15143590D-05
  0.75577127D-06  0.38064900D-09  0.29185751D-09  0.14565735D-09 -0.20870708D-03
  0.75496095D-03  0.14547818D-03 -0.40895806D-10 -0.46532206D-04 -0.69662072D-05
 -0.58245928D-05 -0.61743517D-05 -0.55579482D-09  0.10333431D-08  0.42991318D-03
  0.79310588D-03  0.12803188D-02  0.16665947D-02  0.14221082D-02  0.49101980D-03
 -0.39568490D-04 -0.18237081D-04  0.51138679D-04  0.62417729D-04  0.47857956D-04
  0.23884474D-04 -0.87614691D-05 -0.67177388D-05 -0.33526225D-05 -0.11357515D-08
 -0.87082219D-09 -0.43460131D-09 -0.55700981D-03 -0.73489504D-03 -0.26194314D-03
  0.26939945D-08  0.22525624D-04  0.17042175D-04  0.12233277D-04 -0.21632641D-05
  0.28047277D-09  0.98641211D-09  0.17643927D-03  0.32549600D-03  0.52545148D-03
  0.68398170D-03  0.58364282D-03  0.20151784D-03 -0.47382274D-04 -0.21838447D-04
  0.61237284D-04 -0.35310785D-04 -0.27074070D-04 -0.13511858D-04  0.67205522D-05
  0.51528932D-05  0.25716548D-05  0.12119444D-08  0.92924212D-09  0.46375694D-09
 -0.81992468D-03  0.43125075D-03 -0.37722681D-03 -0.26143572D-08 -0.68667385D-04
 -0.37398647D-04  0.46489192D-05  0.16857233D-05  0.40661162D-09 -0.43681219D-09
  0.10039819D-01  0.18521506D-01  0.29899454D-01  0.38920205D-01  0.33210682D-01
  0.11466850D-01 -0.16316614D-03 -0.75203125D-04  0.21087741D-03 -0.18561205D-03
 -0.14231555D-03 -0.71025431D-04 -0.33526032D-03 -0.25705635D-03 -0.12828913D-03
 -0.17036857D-08 -0.13062781D-08 -0.65192435D-09  0.16595195D-02 -0.28067126D-03
  0.69059182D-03  0.64925981D-08 -0.43191558D-03 -0.46898142D-03 -0.38760742D-03
 -0.15509713D-03 -0.16183072D-08  0.16403411D-09  0.38640481D+00  0.71284142D+00
  0.11507471D+01  0.14979308D+01  0.12781870D+01  0.44132727D+00 -0.14473494D-01
 -0.66708203D-02  0.18705676D-01 -0.10050868D-03 -0.77063681D-04 -0.38460178D-04
  0.34681856D-06  0.26591847D-06  0.13271196D-06  0.12369543D-08  0.94841808D-09
  0.47332709D-09 -0.29079387D-02  0.70452863D-03 -0.59872954D-04 -0.21272690D-08
 -0.75271335D-02 -0.73986028D-02 -0.76771178D-02 -0.91221107D-04  0.15141652D-08
  0.40774532D-08  0.18209065D-01  0.33592169D-01  0.54228176D-01  0.70588973D-01
  0.60233699D-01  0.20797249D-01 -0.43963542D-03 -0.20262756D-03  0.56818884D-03
 -0.13655488D-03 -0.10470162D-03 -0.52253448D-04  0.32855895D-03  0.25191816D-03
  0.12572482D-03  0.21261508D-08  0.16301976D-08  0.81358286D-09  0.15404368D-02
 -0.23048166D-03 -0.58119439D-03 -0.34364625D-08 -0.58103408D-03 -0.60475103D-03
 -0.55637994D-03  0.10984280D-03  0.10133563D-08 -0.87933794D-09  0.13920919D-02
  0.25681377D-02  0.41457705D-02  0.53965613D-02  0.46048955D-02  0.15899598D-02
 -0.92954512D-04 -0.42842650D-04  0.12013526D-03  0.35620476D-04  0.27311522D-04
  0.13630363D-04  0.14988535D-04  0.11492258D-04  0.57354423D-05  0.39538068D-09
  0.30315283D-09  0.15129451D-09 -0.80955271D-03 -0.33557458D-03  0.39648150D-03
  0.11697439D-08 -0.27325056D-05 -0.24604943D-04  0.31237300D-05 -0.64390266D-05
  0.30345898D-09  0.39835577D-09  0.18405528D-04  0.33954606D-04  0.54813262D-04
  0.71350581D-04  0.60883580D-04  0.21021637D-04 -0.26775864D-05 -0.12340971D-05
  0.34605372D-05 -0.41312889D-04 -0.31676103D-04 -0.15808595D-04  0.34505988D-04
  0.26457003D-04  0.13203899D-04 -0.49041095D-09 -0.37601601D-09 -0.18765834D-09
 -0.27305418D-03  0.82635531D-04  0.88173790D-04  0.29890743D-09 -0.14015623D-04
 -0.13668905D-04 -0.44673647D-05 -0.37617801D-04 -0.37498744D-09  0.57593220D-09
 -0.11219438D-05 -0.20697673D-05 -0.33412462D-05 -0.43493097D-05 -0.37112739D-05
 -0.12814137D-05  0.11561165D-04  0.53285303D-05 -0.14941755D-04  0.19468683D-04
  0.14927351D-04  0.74497943D-05 -0.10913872D-04 -0.83680652D-05 -0.41762510D-05
  0.16231729D-09  0.12445460D-09  0.62111568D-10  0.21237607D-03  0.23230150D-04
 -0.43150740D-04 -0.12152896D-10  0.22819204D-04 -0.54130543D-05 -0.39087594D-05
 -0.99193127D-05  0.16474630D-09  0.21614290D-10 -0.21652158D-05 -0.36726158D-05
 -0.41811433D-05  0.47143528D-05 -0.81832003D-05 -0.13880257D-04 -0.15802182D-04
 -0.32253506D-04  0.10109250D-04  0.17147201D-04  0.19521482D-04  0.30065725D-04
 -0.30682064D-05 -0.52042588D-05 -0.59248646D-05 -0.30973372D-04 -0.84636153D-04
 -0.14355893D-03 -0.16343677D-03  0.72020840D-04  0.82332699D-05  0.13965184D-04
  0.15898868D-04  0.14933786D-03 -0.36523889D+00 -0.67379444D+00 -0.10877131D+01
 -0.14158793D+01 -0.12081724D+01 -0.41715289D+00  0.13681158D-01  0.63056334D-02
 -0.17681654D-01 -0.95410060D-04 -0.73154382D-04 -0.36509164D-04  0.26994444D-06
  0.20697627D-06  0.10329567D-06 -0.72730375D-10 -0.55765039D-10 -0.27830663D-10
  0.27490447D-02  0.66747577D-03 -0.58288245D-04  0.57592789D-08  0.71147337D-02
  0.69932477D-02  0.72560261D-02  0.86841329D-04 -0.42267116D-08  0.37221621D-08
 -0.17211479D-01 -0.31751818D-01 -0.51257280D-01 -0.66721748D-01 -0.56933789D-01
 -0.19657869D-01  0.41547415D-03  0.19149165D-03 -0.53696259D-03 -0.12961278D-03
 -0.99378860D-04 -0.49597016D-04  0.31032906D-03  0.23794064D-03  0.11874906D-03
 -0.25016951D-08 -0.19181411D-08 -0.95728686D-09 -0.14585569D-02 -0.21788130D-03
 -0.55106008D-03  0.22472424D-08  0.54896234D-03  0.57182132D-03  0.52577729D-03
 -0.10385582D-03  0.17025517D-08 -0.14787817D-08 -0.13155417D-02 -0.24269176D-02
 -0.39177975D-02 -0.50998083D-02 -0.43516757D-02 -0.15025290D-02  0.88398827D-04
  0.40742939D-04 -0.11424745D-03  0.34550501D-04  0.26491132D-04  0.13220932D-04
  0.14432406D-04  0.11065854D-04  0.55226365D-05 -0.10917274D-08 -0.83706731D-09
 -0.41775525D-09  0.77853522D-03 -0.31450987D-03  0.38015233D-03 -0.28187930D-08
  0.29639589D-05  0.23868114D-04 -0.31818196D-05  0.59367272D-05  0.82749508D-09
 -0.43082074D-09  0.80137623D-04  0.13592858D-03  0.15474988D-03 -0.67402650D-04
 -0.78293474D-05 -0.13280055D-04 -0.15118873D-04 -0.14151996D-03 -0.17233303D-04
 -0.31792079D-04 -0.51322273D-04 -0.66806351D-04 -0.57005980D-04 -0.19682795D-04
  0.22933684D-05  0.10570114D-05 -0.29639703D-05 -0.39352897D-04 -0.30173305D-04
 -0.15058594D-04  0.32839745D-04  0.25179434D-04  0.12566302D-04  0.22734803D-09
  0.17431605D-09  0.86995925D-10  0.25524447D-03  0.75651453D-04  0.82618175D-04
 -0.57719104D-09  0.13301499D-04  0.12936683D-04  0.43306437D-05  0.35666195D-04