 Generated by Multiwfn
GAUSSIAN             69 MOL ORBITALS    312 PRIMITIVES       18 NUCLEI
  C    1    (CENTRE  1)   4.58037780 -1.33388033 -0.00000287  CHARGE =  6.0
  C    2    (CENTRE  2)   2.34442455 -2.63986880  0.00000134  CHARGE =  6.0
  C    3    (CENTRE  3)   0.00002417 -1.34924843  0.00000232  CHARGE =  6.0
  C    4    (CENTRE  4)  -0.00002598  1.34923982  0.00000333  CHARGE =  6.0
  C    5    (CENTRE  5)   2.34439793  2.63986949  0.00000376  CHARGE =  6.0
  C    6    (CENTRE  6)   4.58035284  1.33390941 -0.00000274  CHARGE =  6.0
  H    7    (CENTRE  7)  -2.34161961 -4.68624211  0.00001334  CHARGE =  1.0
  H    8    (CENTRE  8)   6.35796619 -2.34379032 -0.00000505  CHARGE =  1.0
  H    9    (CENTRE  9)   2.34166308 -4.68622320 -0.00000204  CHARGE =  1.0
  C   10    (CENTRE 10)  -2.34440976 -2.63988367  0.00000161  CHARGE =  6.0
  C   11    (CENTRE 11)  -2.34443060  2.63988361  0.00000098  CHARGE =  6.0
  H   12    (CENTRE 12)   2.34163295  4.68623028 -0.00000372  CHARGE =  1.0
  H   13    (CENTRE 13)   6.35793788  2.34382689 -0.00000707  CHARGE =  1.0
  C   14    (CENTRE 14)  -4.58036766  1.33388674 -0.00000251  CHARGE =  6.0
  C   15    (CENTRE 15)  -4.58034670 -1.33390529 -0.00000359  CHARGE =  6.0
  H   16    (CENTRE 16)  -2.34163688  4.68623391  0.00000979  CHARGE =  1.0
  H   17    (CENTRE 17)  -6.35798242  2.34375640 -0.00001111  CHARGE =  1.0
  H   18    (CENTRE 18)  -6.35794092 -2.34380723 -0.00000389  CHARGE =  1.0
CENTRE ASSIGNMENTS    1  1  1  1  1  1  1  1  1  1  1  1  1  1  1  1  1  1  1  1
CENTRE ASSIGNMENTS    1  1  1  1  1  1  1  1  2  2  2  2  2  2  2  2  2  2  2  2
CENTRE ASSIGNMENTS    2  2  2  2  2  2  2  2  2  2  2  2  2  2  2  2  3  3  3  3
CENTRE ASSIGNMENTS    3  3  3  3  3  3  3  3  3  3  3  3  3  3  3  3  3  3  3  3
CENTRE ASSIGNMENTS    3  3  3  3  4  4  4  4  4  4  4  4  4  4  4  4  4  4  4  4
CENTRE ASSIGNMENTS    4  4  4  4  4  4  4  4  4  4  4  4  5  5  5  5  5  5  5  5
CENTRE ASSIGNMENTS    5  5  5  5  5  5  5  5  5  5  5  5  5  5  5  5  5  5  5  5
CENTRE ASSIGNMENTS    6  6  6  6  6  6  6  6  6  6  6  6  6  6  6  6  6  6  6  6
CENTRE ASSIGNMENTS    6  6  6  6  6  6  6  6  7  7  7  7  8  8  8  8  9  9  9  9
CENTRE ASSIGNMENTS   10 10 10 10 10 10 10 10 10 10 10 10 10 10 10 10 10 10 10 10
CENTRE ASSIGNMENTS   10 10 10 10 10 10 10 10 11 11 11 11 11 11 11 11 11 11 11 11
CENTRE ASSIGNMENTS   11 11 11 11 11 11 11 11 11 11 11 11 11 11 11 11 12 12 12 12
CENTRE ASSIGNMENTS   13 13 13 13 14 14 14 14 14 14 14 14 14 14 14 14 14 14 14 14
CENTRE ASSIGNMENTS   14 14 14 14 14 14 14 14 14 14 14 14 15 15 15 15 15 15 15 15
CENTRE ASSIGNMENTS   15 15 15 15 15 15 15 15 15 15 15 15 15 15 15 15 15 15 15 15
CENTRE ASSIGNMENTS   16 16 16 16 17 17 17 17 18 18 18 18
TYPE ASSIGNMENTS      1  1  1  1  1  1  1  1  1  2  2  2  3  3  3  4  4  4  1  2
TYPE ASSIGNMENTS      3  4  5  6  7  8  9 10  1  1  1  1  1  1  1  1  1  2  2  2
TYPE ASSIGNMENTS      3  3  3  4  4  4  1  2  3  4  5  6  7  8  9 10  1  1  1  1
TYPE ASSIGNMENTS      1  1  1  1  1  2  2  2  3  3  3  4  4  4  1  2  3  4  5  6
TYPE ASSIGNMENTS      7  8  9 10  1  1  1  1  1  1  1  1  1  2  2  2  3  3  3  4
TYPE ASSIGNMENTS      4  4  1  2  3  4  5  6  7  8  9 10  1  1  1  1  1  1  1  1
TYPE ASSIGNMENTS      1  2  2  2  3  3  3  4  4  4  1  2  3  4  5  6  7  8  9 10
TYPE ASSIGNMENTS      1  1  1  1  1  1  1  1  1  2  2  2  3  3  3  4  4  4  1  2
TYPE ASSIGNMENTS      3  4  5  6  7  8  9 10  1  1  1  1  1  1  1  1  1  1  1  1
TYPE ASSIGNMENTS      1  1  1  1  1  1  1  1  1  2  2  2  3  3  3  4  4  4  1  2
TYPE ASSIGNMENTS      3  4  5  6  7  8  9 10  1  1  1  1  1  1  1  1  1  2  2  2
TYPE ASSIGNMENTS      3  3  3  4  4  4  1  2  3  4  5  6  7  8  9 10  1  1  1  1
TYPE ASSIGNMENTS      1  1  1  1  1  1  1  1  1  1  1  1  1  2  2  2  3  3  3  4
TYPE ASSIGNMENTS      4  4  1  2  3  4  5  6  7  8  9 10  1  1  1  1  1  1  1  1
TYPE ASSIGNMENTS      1  2  2  2  3  3  3  4  4  4  1  2  3  4  5  6  7  8  9 10
TYPE ASSIGNMENTS      1  1  1  1  1  1  1  1  1  1  1  1
EXPONENTS  0.3047525D+04 0.4573695D+03 0.1039487D+03 0.2921016D+02 0.9286663D+01
EXPONENTS  0.3163927D+01 0.7868272D+01 0.1881289D+01 0.5442493D+00 0.7868272D+01
EXPONENTS  0.1881289D+01 0.5442493D+00 0.7868272D+01 0.1881289D+01 0.5442493D+00
EXPONENTS  0.7868272D+01 0.1881289D+01 0.5442493D+00 0.1687145D+00 0.1687145D+00
EXPONENTS  0.1687145D+00 0.1687145D+00 0.8000000D+00 0.8000000D+00 0.8000000D+00
EXPONENTS  0.8000000D+00 0.8000000D+00 0.8000000D+00 0.3047525D+04 0.4573695D+03
EXPONENTS  0.1039487D+03 0.2921016D+02 0.9286663D+01 0.3163927D+01 0.7868272D+01
EXPONENTS  0.1881289D+01 0.5442493D+00 0.7868272D+01 0.1881289D+01 0.5442493D+00
EXPONENTS  0.7868272D+01 0.1881289D+01 0.5442493D+00 0.7868272D+01 0.1881289D+01
EXPONENTS  0.5442493D+00 0.1687145D+00 0.1687145D+00 0.1687145D+00 0.1687145D+00
EXPONENTS  0.8000000D+00 0.8000000D+00 0.8000000D+00 0.8000000D+00 0.8000000D+00
EXPONENTS  0.8000000D+00 0.3047525D+04 0.4573695D+03 0.1039487D+03 0.2921016D+02
EXPONENTS  0.9286663D+01 0.3163927D+01 0.7868272D+01 0.1881289D+01 0.5442493D+00
EXPONENTS  0.7868272D+01 0.1881289D+01 0.5442493D+00 0.7868272D+01 0.1881289D+01
EXPONENTS  0.5442493D+00 0.7868272D+01 0.1881289D+01 0.5442493D+00 0.1687145D+00
EXPONENTS  0.1687145D+00 0.1687145D+00 0.1687145D+00 0.8000000D+00 0.8000000D+00
EXPONENTS  0.8000000D+00 0.8000000D+00 0.8000000D+00 0.8000000D+00 0.3047525D+04
EXPONENTS  0.4573695D+03 0.1039487D+03 0.2921016D+02 0.9286663D+01 0.3163927D+01
EXPONENTS  0.7868272D+01 0.1881289D+01 0.5442493D+00 0.7868272D+01 0.1881289D+01
EXPONENTS  0.5442493D+00 0.7868272D+01 0.1881289D+01 0.5442493D+00 0.7868272D+01
EXPONENTS  0.1881289D+01 0.5442493D+00 0.1687145D+00 0.1687145D+00 0.1687145D+00
EXPONENTS  0.1687145D+00 0.8000000D+00 0.8000000D+00 0.8000000D+00 0.8000000D+00
EXPONENTS  0.8000000D+00 0.8000000D+00 0.3047525D+04 0.4573695D+03 0.1039487D+03
EXPONENTS  0.2921016D+02 0.9286663D+01 0.3163927D+01 0.7868272D+01 0.1881289D+01
EXPONENTS  0.5442493D+00 0.7868272D+01 0.1881289D+01 0.5442493D+00 0.7868272D+01
EXPONENTS  0.1881289D+01 0.5442493D+00 0.7868272D+01 0.1881289D+01 0.5442493D+00
EXPONENTS  0.1687145D+00 0.1687145D+00 0.1687145D+00 0.1687145D+00 0.8000000D+00
EXPONENTS  0.8000000D+00 0.8000000D+00 0.8000000D+00 0.8000000D+00 0.8000000D+00
EXPONENTS  0.3047525D+04 0.4573695D+03 0.1039487D+03 0.2921016D+02 0.9286663D+01
EXPONENTS  0.3163927D+01 0.7868272D+01 0.1881289D+01 0.5442493D+00 0.7868272D+01
EXPONENTS  0.1881289D+01 0.5442493D+00 0.7868272D+01 0.1881289D+01 0.5442493D+00
EXPONENTS  0.7868272D+01 0.1881289D+01 0.5442493D+00 0.1687145D+00 0.1687145D+00
EXPONENTS  0.1687145D+00 0.1687145D+00 0.8000000D+00 0.8000000D+00 0.8000000D+00
EXPONENTS  0.8000000D+00 0.8000000D+00 0.8000000D+00 0.1873114D+02 0.2825394D+01
EXPONENTS  0.6401217D+00 0.1612778D+00 0.1873114D+02 0.2825394D+01 0.6401217D+00
EXPONENTS  0.1612778D+00 0.1873114D+02 0.2825394D+01 0.6401217D+00 0.1612778D+00
EXPONENTS  0.3047525D+04 0.4573695D+03 0.1039487D+03 0.2921016D+02 0.9286663D+01
EXPONENTS  0.3163927D+01 0.7868272D+01 0.1881289D+01 0.5442493D+00 0.7868272D+01
EXPONENTS  0.1881289D+01 0.5442493D+00 0.7868272D+01 0.1881289D+01 0.5442493D+00
EXPONENTS  0.7868272D+01 0.1881289D+01 0.5442493D+00 0.1687145D+00 0.1687145D+00
EXPONENTS  0.1687145D+00 0.1687145D+00 0.8000000D+00 0.8000000D+00 0.8000000D+00
EXPONENTS  0.8000000D+00 0.8000000D+00 0.8000000D+00 0.3047525D+04 0.4573695D+03
EXPONENTS  0.1039487D+03 0.2921016D+02 0.9286663D+01 0.3163927D+01 0.7868272D+01
EXPONENTS  0.1881289D+01 0.5442493D+00 0.7868272D+01 0.1881289D+01 0.5442493D+00
EXPONENTS  0.7868272D+01 0.1881289D+01 0.5442493D+00 0.7868272D+01 0.1881289D+01
EXPONENTS  0.5442493D+00 0.1687145D+00 0.1687145D+00 0.1687145D+00 0.1687145D+00
EXPONENTS  0.8000000D+00 0.8000000D+00 0.8000000D+00 0.8000000D+00 0.8000000D+00
EXPONENTS  0.8000000D+00 0.1873114D+02 0.2825394D+01 0.6401217D+00 0.1612778D+00
EXPONENTS  0.1873114D+02 0.2825394D+01 0.6401217D+00 0.1612778D+00 0.3047525D+04
EXPONENTS  0.4573695D+03 0.1039487D+03 0.2921016D+02 0.9286663D+01 0.3163927D+01
EXPONENTS  0.7868272D+01 0.1881289D+01 0.5442493D+00 0.7868272D+01 0.1881289D+01
EXPONENTS  0.5442493D+00 0.7868272D+01 0.1881289D+01 0.5442493D+00 0.7868272D+01
EXPONENTS  0.1881289D+01 0.5442493D+00 0.1687145D+00 0.1687145D+00 0.1687145D+00
EXPONENTS  0.1687145D+00 0.8000000D+00 0.8000000D+00 0.8000000D+00 0.8000000D+00
EXPONENTS  0.8000000D+00 0.8000000D+00 0.3047525D+04 0.4573695D+03 0.1039487D+03
EXPONENTS  0.2921016D+02 0.9286663D+01 0.3163927D+01 0.7868272D+01 0.1881289D+01
EXPONENTS  0.5442493D+00 0.7868272D+01 0.1881289D+01 0.5442493D+00 0.7868272D+01
EXPONENTS  0.1881289D+01 0.5442493D+00 0.7868272D+01 0.1881289D+01 0.5442493D+00
EXPONENTS  0.1687145D+00 0.1687145D+00 0.1687145D+00 0.1687145D+00 0.8000000D+00
EXPONENTS  0.8000000D+00 0.8000000D+00 0.8000000D+00 0.8000000D+00 0.8000000D+00
EXPONENTS  0.1873114D+02 0.2825394D+01 0.6401217D+00 0.1612778D+00 0.1873114D+02
EXPONENTS  0.2825394D+01 0.6401217D+00 0.1612778D+00 0.1873114D+02 0.2825394D+01
EXPONENTS  0.6401217D+00 0.1612778D+00
MO    1     MO 0.0        OCC NO =    1.0000000  ORB. ENERGY =  -10.003462
  0.26986889D-04  0.49785540D-04  0.80369298D-04  0.10461695D-03  0.89269829D-04
  0.30822727D-04  0.31744554D-04  0.14631036D-04 -0.41026952D-04  0.40004195D-04
  0.30672680D-04  0.15307817D-04  0.50861223D-05  0.38997160D-05  0.19462316D-05
  0.31040445D-09  0.23799845D-09  0.11877790D-09 -0.79086201D-05  0.56602488D-05
 -0.17265858D-04 -0.87653316D-10  0.59570002D-04  0.24600663D-04 -0.32991324D-04
  0.28919180D-04 -0.13285684D-10 -0.21005496D-09  0.43498380D-02  0.80246017D-02
  0.12954195D-01  0.16862513D-01  0.14388813D-01  0.49681114D-02 -0.35594234D-04
 -0.16405350D-04  0.46002314D-04  0.26318919D-03  0.20179678D-03  0.10071074D-03
 -0.21301389D-03 -0.16332554D-03 -0.81510891D-04 -0.10039139D-09 -0.76973754D-10
 -0.38415298D-10  0.55424943D-03 -0.18902068D-03  0.10798062D-03  0.11384396D-09
 -0.38951347D-03 -0.27177867D-03 -0.20952414D-03  0.15018538D-03  0.13921835D-09
 -0.80785408D-10  0.37634594D+00  0.69428477D+00  0.11207909D+01  0.14589367D+01
  0.12449134D+01  0.42983866D+00 -0.13898797D-01 -0.64059427D-02  0.17962932D-01
  0.25173468D-07  0.19301418D-07  0.96327605D-08 -0.22121233D-03 -0.16961158D-03
 -0.84648066D-04 -0.76470801D-10 -0.58632960D-10 -0.29261956D-10 -0.16602689D-02
 -0.20466224D-07  0.19770739D-03 -0.33487744D-10 -0.72911358D-02 -0.75499256D-02
 -0.75499406D-02 -0.45552599D-07 -0.98552031D-10 -0.35349653D-09  0.37648905D+00
  0.69454879D+00  0.11212171D+01  0.14594915D+01  0.12453868D+01  0.43000212D+00
 -0.13904206D-01 -0.64084357D-02  0.17969923D-01  0.17798713D-08  0.13646924D-08
  0.68107716D-09  0.22103252D-03  0.16947372D-03  0.84579263D-04 -0.29409292D-09
 -0.22549179D-09 -0.11253621D-09 -0.16618208D-02  0.10607463D-07 -0.19737981D-03
  0.37503198D-09 -0.72937470D-02 -0.75524930D-02 -0.75526801D-02 -0.30327632D-07
  0.33772311D-09 -0.21676116D-09  0.43511741D-02  0.80270667D-02  0.12958175D-01
  0.16867693D-01  0.14393233D-01  0.49696375D-02 -0.35597024D-04 -0.16406636D-04
  0.46005919D-04  0.26328247D-03  0.20186830D-03  0.10074643D-03  0.21308457D-03
  0.16337974D-03  0.81537939D-04 -0.58121457D-10 -0.44563847D-10 -0.22240483D-10
  0.55461777D-03 -0.18902553D-03 -0.10815589D-03 -0.11025681D-09 -0.38970862D-03
 -0.27191394D-03 -0.20961151D-03 -0.15027854D-03  0.23699305D-09  0.14145996D-09
  0.27115926D-04  0.50023589D-04  0.80753584D-04  0.10511717D-03  0.89696673D-04
  0.30970106D-04  0.31716543D-04  0.14618126D-04 -0.40990750D-04  0.40002850D-04
  0.30671648D-04  0.15307302D-04 -0.50910627D-05 -0.39035039D-05 -0.19481220D-05
  0.37384333D-09  0.28663935D-09  0.14305313D-09 -0.81954827D-05  0.57834722D-05
  0.17321869D-04 -0.58140743D-10  0.59598530D-04  0.24614720D-04 -0.32967697D-04
 -0.28924949D-04 -0.94185283D-10  0.49770291D-09 -0.97720658D-05 -0.16575273D-04
 -0.18870363D-04  0.33763768D-05 -0.25288951D-05 -0.42894848D-05 -0.48834268D-05
  0.86112290D-05 -0.97716971D-05 -0.16574648D-04 -0.18869651D-04  0.33806366D-05
  0.43492436D-02  0.80235051D-02  0.12952425D-01  0.16860209D-01  0.14386847D-01
  0.49674325D-02 -0.35584673D-04 -0.16400943D-04  0.45989957D-04 -0.26317091D-03
 -0.20178277D-03 -0.10070374D-03 -0.21300321D-03 -0.16331735D-03 -0.81506805D-04
 -0.21177492D-09 -0.16237558D-09 -0.81036794D-10  0.55420672D-03  0.18901118D-03
  0.10796731D-03  0.17956942D-09 -0.38950445D-03 -0.27176919D-03 -0.20951030D-03
 -0.15020343D-03 -0.13056543D-09 -0.23432446D-09  0.43511943D-02  0.80271038D-02
  0.12958234D-01  0.16867771D-01  0.14393300D-01  0.49696604D-02 -0.35594087D-04
 -0.16405282D-04  0.46002124D-04 -0.26328644D-03 -0.20187134D-03 -0.10074795D-03
  0.21309177D-03  0.16338525D-03  0.81540692D-04 -0.94374730D-10 -0.72360557D-10
 -0.36112989D-10  0.55463929D-03  0.18902766D-03 -0.10816310D-03  0.36103293D-10
 -0.38971038D-03 -0.27191582D-03 -0.20961398D-03  0.15027456D-03 -0.57161836D-09
  0.69165506D-09 -0.97668892D-05 -0.16566493D-04 -0.18860366D-04  0.34202260D-05
 -0.25338763D-05 -0.42979338D-05 -0.48930457D-05  0.85769122D-05  0.27101812D-04
  0.49997552D-04  0.80711551D-04  0.10506246D-03  0.89649986D-04  0.30953986D-04
  0.31716086D-04  0.14617915D-04 -0.40990160D-04 -0.40000578D-04 -0.30669906D-04
 -0.15306433D-04 -0.50910849D-05 -0.39035210D-05 -0.19481306D-05  0.76818047D-10
  0.58899206D-10  0.29394832D-10 -0.82087128D-05 -0.57876749D-05  0.17325360D-04
  0.43667306D-10  0.59600921D-04  0.24612467D-04 -0.32965878D-04  0.28926848D-04
  0.23237624D-09  0.69920221D-10  0.26980155D-04  0.49773118D-04  0.80349245D-04
  0.10459084D-03  0.89247556D-04  0.30815036D-04  0.31747460D-04  0.14632375D-04
 -0.41030708D-04 -0.40004071D-04 -0.30672584D-04 -0.15307769D-04  0.50847960D-05
  0.38986990D-05  0.19457241D-05  0.34194303D-09  0.26218023D-09  0.13084631D-09
 -0.78953882D-05 -0.56548111D-05 -0.17261055D-04 -0.14421998D-09  0.59569765D-04
  0.24604575D-04 -0.32994058D-04 -0.28916062D-04  0.52460953D-10 -0.35136714D-09
 -0.97668575D-05 -0.16566439D-04 -0.18860305D-04  0.34214072D-05 -0.25340508D-05
 -0.42982298D-05 -0.48933827D-05  0.85755770D-05 -0.25286851D-05 -0.42891285D-05
 -0.48830212D-05  0.86131818D-05
MO    2     MO 0.0        OCC NO =    1.0000000  ORB. ENERGY =  -10.003030
  0.34406248D-03  0.63472810D-03  0.10246480D-02  0.13337872D-02  0.11381230D-02
  0.39296653D-03 -0.76786672D-04 -0.35390907D-04  0.99239797D-04 -0.41376788D-05
 -0.31725097D-05 -0.15833047D-05  0.15153043D-04  0.11618392D-04  0.57983919D-05
  0.19136922D-10  0.14672978D-10  0.73228442D-11 -0.77654040D-03  0.32863484D-03
 -0.15591275D-03 -0.70906689D-09  0.78503583D-04  0.28691124D-04  0.66531332D-04
  0.20877214D-04  0.14666109D-09 -0.57260196D-09  0.44312061D-02  0.81747100D-02
  0.13196517D-01  0.17177943D-01  0.14657970D-01  0.50610449D-02 -0.18955008D-04
 -0.87363460D-05  0.24497626D-04  0.27918248D-03  0.21405942D-03  0.10683065D-03
 -0.20760922D-03 -0.15918158D-03 -0.79442764D-04 -0.67367165D-09 -0.51652870D-09
 -0.25778402D-09  0.10454482D-02 -0.32852157D-04  0.48098896D-03 -0.72996406D-10
 -0.52842426D-03 -0.37289689D-03 -0.25274502D-03  0.21320447D-03  0.20304482D-09
 -0.10467307D-08  0.37665286D+00  0.69485098D+00  0.11217049D+01  0.14601265D+01
  0.12459286D+01  0.43018921D+00 -0.14240061D-01 -0.65632310D-02  0.18403985D-01
  0.82732537D-08  0.63434062D-08  0.31658043D-08  0.47904344D-03  0.36730012D-03
  0.18330850D-03  0.28224004D-11  0.21640376D-11  0.10800064D-11 -0.40813047D-02
  0.17290208D-07 -0.86254609D-03  0.28346378D-09 -0.68643324D-02 -0.67707059D-02
 -0.72180727D-02 -0.48350887D-07 -0.54397171D-10  0.21110297D-09 -0.37650981D+00
 -0.69458708D+00 -0.11212789D+01 -0.14595720D+01 -0.12454554D+01 -0.43002583D+00
  0.14234775D-01  0.65607948D-02 -0.18397154D-01 -0.24712988D-07 -0.18948352D-07
 -0.94565555D-08  0.47912307D-03  0.36736118D-03  0.18333897D-03  0.66556452D-09
  0.51031266D-09  0.25468178D-09  0.40806777D-02  0.45904762D-07 -0.86261701D-03
 -0.11274033D-08  0.68615652D-02  0.67678313D-02  0.72152013D-02  0.26717883D-07
  0.19434514D-09  0.53383972D-10 -0.44291949D-02 -0.81709998D-02 -0.13190527D-01
 -0.17170147D-01 -0.14651318D-01 -0.50587479D-02  0.18938115D-04  0.87285601D-05
 -0.24475794D-04 -0.27906033D-03 -0.21396576D-03 -0.10678391D-03 -0.20751472D-03
 -0.15910912D-03 -0.79406605D-04  0.40465336D-09  0.31026253D-09  0.15484275D-09
 -0.10452711D-02  0.32789263D-04  0.48094993D-03  0.49475280D-09  0.52826409D-03
  0.37278955D-03  0.25265744D-03  0.21315573D-03 -0.81807706D-10 -0.18535116D-08
 -0.34415984D-03 -0.63490771D-03 -0.10249379D-02 -0.13341646D-02 -0.11384451D-02
 -0.39307773D-03  0.76807200D-04  0.35400368D-04 -0.99266328D-04  0.41537580D-05
  0.31848382D-05  0.15894574D-05  0.15155077D-04  0.11619952D-04  0.57991705D-05
 -0.29485735D-09 -0.22607791D-09 -0.11282872D-09  0.77654199D-03 -0.32863668D-03
 -0.15591469D-03  0.96766544D-09 -0.78471725D-04 -0.28680579D-04 -0.66544040D-04
  0.20866156D-04 -0.52918616D-09 -0.75331034D-09  0.12806126D-04  0.21721613D-04
  0.24729289D-04  0.10965298D-03 -0.13078346D-04 -0.22183351D-04 -0.25254961D-04
 -0.91076704D-04  0.12807241D-04  0.21723506D-04  0.24731443D-04  0.10965688D-03
  0.44305921D-02  0.81735773D-02  0.13194688D-01  0.17175563D-01  0.14655939D-01
  0.50603436D-02 -0.18946327D-04 -0.87323447D-05  0.24486406D-04 -0.27915299D-03
 -0.21403680D-03 -0.10681937D-03 -0.20759149D-03 -0.15916799D-03 -0.79435980D-04
  0.63631884D-09  0.48788893D-09  0.24349077D-09  0.10454601D-02  0.32849044D-04
  0.48098403D-03 -0.98885281D-09 -0.52840700D-03 -0.37288629D-03 -0.25273088D-03
 -0.21321883D-03  0.80419311D-10 -0.33813866D-09 -0.44292179D-02 -0.81710423D-02
 -0.13190596D-01 -0.17170236D-01 -0.14651394D-01 -0.50587742D-02  0.18931721D-04
  0.87256129D-05 -0.24467529D-04  0.27907326D-03  0.21397568D-03  0.10678886D-03
 -0.20752470D-03 -0.15911678D-03 -0.79410423D-04  0.25083315D-09  0.19232295D-09
  0.95982630D-10 -0.10452231D-02 -0.32767533D-04  0.48094456D-03  0.53612993D-09
  0.52826891D-03  0.37278388D-03  0.25266010D-03 -0.21315192D-03  0.97908963D-09
  0.27952599D-09 -0.12809988D-04 -0.21728165D-04 -0.24736748D-04 -0.10965300D-03
  0.13078119D-04  0.22182965D-04  0.25254521D-04  0.91083213D-04 -0.34401099D-03
 -0.63463311D-03 -0.10244946D-02 -0.13335876D-02 -0.11379527D-02 -0.39290772D-03
  0.76796173D-04  0.35395286D-04 -0.99252076D-04 -0.41553831D-05 -0.31860842D-05
 -0.15900793D-05  0.15150045D-04  0.11616094D-04  0.57972448D-05 -0.13573016D-09
 -0.10406928D-09 -0.51937863D-10  0.77653618D-03  0.32863641D-03 -0.15589331D-03
  0.46785723D-09 -0.78482210D-04 -0.28684223D-04 -0.66543740D-04 -0.20865132D-04
 -0.84156456D-09  0.16806465D-09  0.34411627D-03  0.63482733D-03  0.10248081D-02
  0.13339957D-02  0.11383010D-02  0.39302797D-03 -0.76792612D-04 -0.35393645D-04
  0.99247474D-04  0.41399073D-05  0.31742183D-05  0.15841574D-05  0.15158128D-04
  0.11622291D-04  0.58003377D-05  0.19779826D-09  0.15165916D-09  0.75688549D-10
 -0.77654018D-03 -0.32864082D-03 -0.15590866D-03 -0.60534956D-09  0.78495090D-04
  0.28692102D-04  0.66532456D-04 -0.20877071D-04 -0.38632968D-09 -0.91115366D-09
 -0.12810790D-04 -0.21729525D-04 -0.24738297D-04 -0.10965597D-03  0.13077441D-04
  0.22181815D-04  0.25253212D-04  0.91078470D-04 -0.13078825D-04 -0.22184162D-04
 -0.25255884D-04 -0.91078427D-04
MO    3     MO 0.0        OCC NO =    1.0000000  ORB. ENERGY =   -9.996142
  0.37254520D+00  0.68727316D+00  0.11094720D+01  0.14442029D+01  0.12323409D+01
  0.42549770D+00 -0.13786150D-01 -0.63540240D-02  0.17817346D-01  0.59893219D-05
  0.45922321D-05  0.22918457D-05 -0.28183976D-03 -0.21609686D-03 -0.10784748D-03
  0.69803839D-09  0.53521156D-09  0.26710808D-09 -0.14085885D-02  0.14101036D-03
  0.12064534D-03 -0.30417690D-09 -0.74155123D-02 -0.75692162D-02 -0.75918187D-02
  0.19541009D-04 -0.28850373D-09 -0.96136229D-10  0.92847948D-02  0.17128633D-01
  0.27650925D-01  0.35993289D-01  0.30713139D-01  0.10604509D-01 -0.18539641D-03
 -0.85449036D-04  0.23960801D-03 -0.29811229D-03 -0.22857360D-03 -0.11407425D-03
 -0.21718909D-03 -0.16652682D-03 -0.83108553D-04  0.57261212D-09  0.43904265D-09
  0.21911305D-09  0.60115892D-03  0.17659876D-03  0.16344768D-03 -0.31932259D-09
 -0.42681350D-03 -0.31852154D-03 -0.32416803D-03  0.14599071D-05  0.36151737D-09
 -0.76818896D-11 -0.12380234D-03 -0.22839115D-03 -0.36869413D-03 -0.47993021D-03
 -0.40952532D-03 -0.14139925D-03  0.23165725D-04  0.10677062D-04 -0.29939595D-04
 -0.65899582D-04 -0.50527620D-04 -0.25216824D-04 -0.36253739D-04 -0.27797068D-04
 -0.13872685D-04  0.34596150D-09  0.26526134D-09  0.13238400D-09 -0.12384131D-03
  0.23735555D-04  0.39455063D-04 -0.53926154D-10  0.37099475D-04  0.17715857D-04
 -0.17067492D-04 -0.61414351D-04 -0.41897784D-09  0.23238426D-10 -0.12587407D-03
 -0.23221309D-03 -0.37486392D-03 -0.48796145D-03 -0.41637839D-03 -0.14376545D-03
  0.22930451D-04  0.10568624D-04 -0.29635524D-04 -0.65531191D-04 -0.50245161D-04
 -0.25075857D-04  0.36242380D-04  0.27788358D-04  0.13868338D-04  0.58026828D-09
  0.44491291D-09  0.22204272D-09 -0.12747335D-03  0.20508073D-04 -0.39379779D-04
 -0.24133421D-09  0.37310559D-04  0.17927380D-04 -0.16710188D-04  0.61372287D-04
 -0.53049118D-09  0.18851504D-09  0.93256399D-02  0.17203985D-01  0.27772565D-01
  0.36151628D-01  0.30848250D-01  0.10651159D-01 -0.18579667D-03 -0.85633516D-04
  0.24012532D-03 -0.29923254D-03 -0.22943253D-03 -0.11450291D-03  0.21791972D-03
  0.16708702D-03  0.83388132D-04  0.43126364D-09  0.33066561D-09  0.16502531D-09
  0.61002289D-03  0.17689616D-03 -0.16694830D-03 -0.30614926D-09 -0.42895540D-03
 -0.32028687D-03 -0.32594386D-03 -0.97082154D-06  0.48750388D-09 -0.13129802D-09
  0.37413993D+00  0.69021512D+00  0.11142212D+01  0.14503850D+01  0.12376161D+01
  0.42731910D+00 -0.13846750D-01 -0.63819544D-02  0.17895666D-01  0.55464327D-05
  0.42526528D-05  0.21223718D-05  0.28061742D-03  0.21515964D-03  0.10737974D-03
  0.10159727D-08  0.77898345D-09  0.38876734D-09 -0.14251426D-02  0.14455257D-03
 -0.11772481D-03 -0.59714933D-09 -0.74457235D-02 -0.75987565D-02 -0.76228213D-02
 -0.20373348D-04 -0.98370588D-09  0.11531143D-09 -0.47905972D-05 -0.81257596D-05
 -0.92508901D-05 -0.19500842D-05 -0.68397851D-04 -0.11601570D-03 -0.13207978D-03
  0.23469728D-03 -0.64005454D-05 -0.10856536D-04 -0.12359783D-04  0.33508879D-04
 -0.11725216D-02 -0.21630734D-02 -0.34918712D-02 -0.45453788D-02 -0.38785800D-02
 -0.13391805D-02  0.42531472D-04  0.19602716D-04 -0.54968063D-04 -0.41256591D-04
 -0.31632938D-04 -0.15787053D-04  0.35135754D-04  0.26939868D-04  0.13444882D-04
 -0.32196138D-09 -0.24685957D-09 -0.12320022D-09 -0.61455834D-05  0.95733874D-04
 -0.17327044D-04  0.19087216D-09  0.73779018D-04  0.32395267D-04  0.23308192D-04
  0.14199707D-04  0.12624242D-09 -0.12331330D-09 -0.11682745D-02 -0.21552383D-02
 -0.34792229D-02 -0.45289145D-02 -0.38645309D-02 -0.13343297D-02  0.42392438D-04
  0.19538636D-04 -0.54788375D-04 -0.41522272D-04 -0.31836644D-04 -0.15888717D-04
 -0.34967453D-04 -0.26810825D-04 -0.13380481D-04 -0.43227808D-09 -0.33144341D-09
 -0.16541349D-09 -0.76393807D-05  0.95842702D-04  0.18041676D-04  0.36926968D-09
  0.73521811D-04  0.32018304D-04  0.23154428D-04 -0.14264360D-04  0.19483139D-09
 -0.11783107D-09 -0.63380035D-05 -0.10750454D-04 -0.12239011D-04  0.34316080D-04
 -0.68761293D-04 -0.11663217D-03 -0.13278160D-03  0.23467520D-03 -0.47112939D-01
 -0.86914173D-01 -0.14030642D+00 -0.18263727D+00 -0.15584472D+00 -0.53809436D-01
  0.17467691D-02  0.80508429D-03 -0.22575404D-02  0.28087603D-05  0.21535793D-05
  0.10747870D-05 -0.44682348D-04 -0.34259590D-04 -0.17097937D-04  0.43711498D-09
  0.33515204D-09  0.16726436D-09  0.22593616D-03  0.23183915D-04  0.34930095D-04
 -0.15313646D-09  0.93888546D-03  0.95880471D-03  0.95548885D-03 -0.95626016D-07
 -0.27031935D-09  0.10303109D-09 -0.47280661D-01 -0.87223588D-01 -0.14080592D+00
 -0.18328746D+00 -0.15639953D+00 -0.54000998D-01  0.17530067D-02  0.80795917D-03
 -0.22656018D-02  0.26551704D-05  0.20358162D-05  0.10160150D-05  0.44622036D-04
  0.34213347D-04  0.17074858D-04 -0.12749157D-09 -0.97752451D-10 -0.48785324D-10
  0.22620595D-03  0.22891043D-04 -0.34724129D-04  0.15592871D-09  0.94201441D-03
  0.96188083D-03  0.95884968D-03  0.33004354D-06 -0.92764704D-11  0.18901653D-09
 -0.48389355D-05 -0.82077505D-05 -0.93442339D-05 -0.21645280D-05  0.51907038D-05
  0.88044161D-05  0.10023517D-04 -0.33303138D-04  0.52129545D-05  0.88421575D-05
  0.10066484D-04 -0.33448502D-04
MO    4     MO 0.0        OCC NO =    1.0000000  ORB. ENERGY =   -9.996141
  0.47092976D-01  0.86877345D-01  0.14024697D+00  0.18255989D+00  0.15577868D+00
  0.53786636D-01 -0.17392696D-02 -0.80162778D-03  0.22478480D-02 -0.13565474D-05
 -0.10401145D-05 -0.51909002D-06 -0.26260841D-04 -0.20135147D-04 -0.10048850D-04
  0.12675519D-09  0.97187839D-10  0.48503543D-10 -0.12893441D-03  0.12385420D-04
 -0.51052986D-05 -0.62888848D-10 -0.93623587D-03 -0.95515467D-03 -0.96438921D-03
  0.49203501D-05  0.20436014D-11 -0.38204083D-10  0.11798935D-02  0.21766730D-02
  0.35138252D-02  0.45739563D-02  0.39029652D-02  0.13476001D-02 -0.38646538D-05
 -0.17812154D-05  0.49947139D-05 -0.33769516D-04 -0.25892323D-04 -0.12922084D-04
 -0.19701500D-04 -0.15105861D-04 -0.75388831D-05 -0.11318726D-09 -0.86784813D-10
 -0.43311704D-10  0.14686857D-03 -0.53567202D-04  0.23496421D-04  0.13533593D-09
 -0.33773993D-04 -0.48785305D-04 -0.59406875D-04 -0.14355770D-04 -0.40646963D-10
  0.14658476D-09 -0.16163051D-03 -0.29817672D-03 -0.48134968D-03 -0.62657427D-03
 -0.53465696D-03 -0.18460420D-03  0.29643506D-04  0.13662665D-04 -0.38311538D-04
  0.50766980D-04  0.38924900D-04  0.19426253D-04 -0.46735973D-04 -0.35834179D-04
 -0.17883767D-04  0.55980167D-09  0.42922042D-09  0.21421107D-09 -0.16320128D-03
 -0.15410277D-04  0.50800782D-04 -0.21825881D-09  0.48041584D-04  0.23046236D-04
 -0.21661918D-04  0.47591284D-04  0.27682357D-09 -0.17871169D-09 -0.16028647D-03
 -0.29569724D-03 -0.47734703D-03 -0.62136400D-03 -0.53021103D-03 -0.18306913D-03
  0.29796787D-04  0.13733312D-04 -0.38509640D-04  0.51168828D-04  0.39233011D-04
  0.19580022D-04  0.46743486D-04  0.35839940D-04  0.17886642D-04  0.24505018D-09
  0.18788893D-09  0.93769745D-10 -0.16084724D-03 -0.18917366D-04 -0.50854752D-04
  0.78444371D-10  0.47905085D-04  0.22909821D-04 -0.21894058D-04 -0.47636544D-04
  0.72888040D-10  0.87077737D-10  0.11851359D-02  0.21863443D-02  0.35294377D-02
  0.45942791D-02  0.39203067D-02  0.13535877D-02 -0.38307360D-05 -0.17655827D-05
  0.49508782D-05 -0.34245358D-04 -0.26257168D-04 -0.13104167D-04  0.19715047D-04
  0.15116248D-04  0.75440669D-05 -0.11890073D-09 -0.91165538D-10 -0.45497993D-10
  0.15010731D-03 -0.53410551D-04 -0.24882564D-04 -0.25558538D-12 -0.34018927D-04
 -0.48844474D-04 -0.59662206D-04  0.14407434D-04  0.20368474D-09 -0.56458160D-10
  0.47296678D-01  0.87253136D-01  0.14085362D+00  0.18334956D+00  0.15645251D+00
  0.54019292D-01 -0.17471279D-02 -0.80524965D-03  0.22580041D-02 -0.13199725D-05
 -0.10120712D-05 -0.50509444D-06  0.26046378D-04  0.19970710D-04  0.99667841D-05
  0.11348166D-09  0.87010539D-10  0.43424357D-10 -0.13232296D-03  0.13414185D-04
  0.55662383D-05 -0.46910667D-11 -0.94013717D-03 -0.95895354D-03 -0.96826244D-03
 -0.48984942D-05 -0.17634576D-09  0.62998666D-10 -0.77812844D-05 -0.13198531D-04
 -0.15026061D-04  0.34857158D-04 -0.12219507D-04 -0.20726597D-04 -0.23596498D-04
  0.25904247D-04 -0.66351446D-05 -0.11254461D-04 -0.12812806D-04  0.64092623D-05
  0.93246483D-02  0.17202155D-01  0.27769612D-01  0.36147784D-01  0.30844970D-01
  0.10650027D-01 -0.18089837D-03 -0.83375894D-04  0.23379471D-03  0.29825596D-03
  0.22868375D-03  0.11412922D-03 -0.21591747D-03 -0.16555182D-03 -0.82621963D-04
  0.78640194D-09  0.60296313D-09  0.30092086D-09  0.62748163D-03 -0.15801609D-03
  0.16761021D-03 -0.27989239D-09 -0.42377134D-03 -0.32224186D-03 -0.33041084D-03
  0.26057670D-05 -0.72276857D-09  0.45452014D-09  0.92903437D-02  0.17138870D-01
  0.27667450D-01  0.36014800D-01  0.30731494D-01  0.10610846D-01 -0.18058661D-03
 -0.83232204D-04  0.23339179D-03  0.29722743D-03  0.22789514D-03  0.11373565D-03
  0.21532197D-03  0.16509523D-03  0.82394092D-04  0.73127655D-09  0.56069647D-09
  0.27982684D-09  0.61947656D-03 -0.15773552D-03 -0.16442228D-03 -0.57554199D-09
 -0.42197287D-03 -0.32079858D-03 -0.32890964D-03 -0.21936966D-05 -0.16901000D-09
  0.46849254D-09 -0.65796699D-05 -0.11160366D-04 -0.12705682D-04  0.67716448D-05
 -0.12279784D-04 -0.20828837D-04 -0.23712895D-04  0.25773574D-04  0.37266988D+00
  0.68750317D+00  0.11098433D+01  0.14446862D+01  0.12327533D+01  0.42564010D+00
 -0.13790043D-01 -0.63558184D-02  0.17822378D-01 -0.54199874D-05 -0.41557026D-05
 -0.20739868D-05  0.27940589D-03  0.21423072D-03  0.10691614D-03 -0.29073348D-08
 -0.22291599D-08 -0.11125070D-08 -0.13976597D-02 -0.13993201D-03 -0.11534584D-03
  0.53448584D-09 -0.74175841D-02 -0.75711282D-02 -0.75954216D-02  0.20236153D-04
  0.17014524D-08 -0.14410583D-08  0.37401522D+00  0.68998504D+00  0.11138498D+01
  0.14499015D+01  0.12372036D+01  0.42717666D+00 -0.13841192D-01 -0.63793928D-02
  0.17888483D-01 -0.50741619D-05 -0.38905455D-05 -0.19416549D-05 -0.27836871D-03
 -0.21343547D-03 -0.10651926D-03  0.85498759D-09  0.65555025D-09  0.32716552D-09
 -0.14119345D-02 -0.14306001D-03  0.11286866D-03 -0.85916167D-09 -0.74430839D-02
 -0.75960433D-02 -0.76215551D-02 -0.20896996D-04 -0.20326993D-09 -0.11399808D-08
 -0.78459881D-05 -0.13308281D-04 -0.15151007D-04  0.34111898D-04 -0.69314986D-04
 -0.11757133D-03 -0.13385081D-03  0.23375654D-03 -0.69624701D-04 -0.11809667D-03
 -0.13444888D-03  0.23371000D-03
MO    5     MO 0.0        OCC NO =    1.0000000  ORB. ENERGY =   -9.995649
  0.33844042D+00  0.62435648D+00  0.10079050D+01  0.13119928D+01  0.11195258D+01
  0.38654536D+00 -0.12881490D-01 -0.59370669D-02  0.16648155D-01 -0.79489239D-04
 -0.60947307D-04 -0.30416978D-04  0.26853147D-03  0.20589290D-03  0.10275499D-03
  0.72830344D-09  0.55841688D-09  0.27868916D-09 -0.36919589D-02  0.83335041D-03