 Generated by Multiwfn
GAUSSIAN             67 MOL ORBITALS    312 PRIMITIVES       18 NUCLEI
  C    1    (CENTRE  1)   4.58037780 -1.33388033 -0.00000287  CHARGE =  6.0
  C    2    (CENTRE  2)   2.34442455 -2.63986880  0.00000134  CHARGE =  6.0
  C    3    (CENTRE  3)   0.00002417 -1.34924843  0.00000232  CHARGE =  6.0
  C    4    (CENTRE  4)  -0.00002598  1.34923982  0.00000333  CHARGE =  6.0
  C    5    (CENTRE  5)   2.34439793  2.63986949  0.00000376  CHARGE =  6.0
  C    6    (CENTRE  6)   4.58035284  1.33390941 -0.00000274  CHARGE =  6.0
  H    7    (CENTRE  7)  -2.34161961 -4.68624211  0.00001334  CHARGE =  1.0
  H    8    (CENTRE  8)   6.35796619 -2.34379032 -0.00000505  CHARGE =  1.0
  H    9    (CENTRE  9)   2.34166308 -4.68622320 -0.00000204  CHARGE =  1.0
  C   10    (CENTRE 10)  -2.34440976 -2.63988367  0.00000161  CHARGE =  6.0
  C   11    (CENTRE 11)  -2.34443060  2.63988361  0.00000098  CHARGE =  6.0
  H   12    (CENTRE 12)   2.34163295  4.68623028 -0.00000372  CHARGE =  1.0
  H   13    (CENTRE 13)   6.35793788  2.34382689 -0.00000707  CHARGE =  1.0
  C   14    (CENTRE 14)  -4.58036766  1.33388674 -0.00000251  CHARGE =  6.0
  C   15    (CENTRE 15)  -4.58034670 -1.33390529 -0.00000359  CHARGE =  6.0
  H   16    (CENTRE 16)  -2.34163688  4.68623391  0.00000979  CHARGE =  1.0
  H   17    (CENTRE 17)  -6.35798242  2.34375640 -0.00001111  CHARGE =  1.0
  H   18    (CENTRE 18)  -6.35794092 -2.34380723 -0.00000389  CHARGE =  1.0
CENTRE ASSIGNMENTS    1  1  1  1  1  1  1  1  1  1  1  1  1  1  1  1  1  1  1  1
CENTRE ASSIGNMENTS    1  1  1  1  1  1  1  1  2  2  2  2  2  2  2  2  2  2  2  2
CENTRE ASSIGNMENTS    2  2  2  2  2  2  2  2  2  2  2  2  2  2  2  2  3  3  3  3
CENTRE ASSIGNMENTS    3  3  3  3  3  3  3  3  3  3  3  3  3  3  3  3  3  3  3  3
CENTRE ASSIGNMENTS    3  3  3  3  4  4  4  4  4  4  4  4  4  4  4  4  4  4  4  4
CENTRE ASSIGNMENTS    4  4  4  4  4  4  4  4  4  4  4  4  5  5  5  5  5  5  5  5
CENTRE ASSIGNMENTS    5  5  5  5  5  5  5  5  5  5  5  5  5  5  5  5  5  5  5  5
CENTRE ASSIGNMENTS    6  6  6  6  6  6  6  6  6  6  6  6  6  6  6  6  6  6  6  6
CENTRE ASSIGNMENTS    6  6  6  6  6  6  6  6  7  7  7  7  8  8  8  8  9  9  9  9
CENTRE ASSIGNMENTS   10 10 10 10 10 10 10 10 10 10 10 10 10 10 10 10 10 10 10 10
CENTRE ASSIGNMENTS   10 10 10 10 10 10 10 10 11 11 11 11 11 11 11 11 11 11 11 11
CENTRE ASSIGNMENTS   11 11 11 11 11 11 11 11 11 11 11 11 11 11 11 11 12 12 12 12
CENTRE ASSIGNMENTS   13 13 13 13 14 14 14 14 14 14 14 14 14 14 14 14 14 14 14 14
CENTRE ASSIGNMENTS   14 14 14 14 14 14 14 14 14 14 14 14 15 15 15 15 15 15 15 15
CENTRE ASSIGNMENTS   15 15 15 15 15 15 15 15 15 15 15 15 15 15 15 15 15 15 15 15
CENTRE ASSIGNMENTS   16 16 16 16 17 17 17 17 18 18 18 18
TYPE ASSIGNMENTS      1  1  1  1  1  1  1  1  1  2  2  2  3  3  3  4  4  4  1  2
TYPE ASSIGNMENTS      3  4  5  6  7  8  9 10  1  1  1  1  1  1  1  1  1  2  2  2
TYPE ASSIGNMENTS      3  3  3  4  4  4  1  2  3  4  5  6  7  8  9 10  1  1  1  1
TYPE ASSIGNMENTS      1  1  1  1  1  2  2  2  3  3  3  4  4  4  1  2  3  4  5  6
TYPE ASSIGNMENTS      7  8  9 10  1  1  1  1  1  1  1  1  1  2  2  2  3  3  3  4
TYPE ASSIGNMENTS      4  4  1  2  3  4  5  6  7  8  9 10  1  1  1  1  1  1  1  1
TYPE ASSIGNMENTS      1  2  2  2  3  3  3  4  4  4  1  2  3  4  5  6  7  8  9 10
TYPE ASSIGNMENTS      1  1  1  1  1  1  1  1  1  2  2  2  3  3  3  4  4  4  1  2
TYPE ASSIGNMENTS      3  4  5  6  7  8  9 10  1  1  1  1  1  1  1  1  1  1  1  1
TYPE ASSIGNMENTS      1  1  1  1  1  1  1  1  1  2  2  2  3  3  3  4  4  4  1  2
TYPE ASSIGNMENTS      3  4  5  6  7  8  9 10  1  1  1  1  1  1  1  1  1  2  2  2
TYPE ASSIGNMENTS      3  3  3  4  4  4  1  2  3  4  5  6  7  8  9 10  1  1  1  1
TYPE ASSIGNMENTS      1  1  1  1  1  1  1  1  1  1  1  1  1  2  2  2  3  3  3  4
TYPE ASSIGNMENTS      4  4  1  2  3  4  5  6  7  8  9 10  1  1  1  1  1  1  1  1
TYPE ASSIGNMENTS      1  2  2  2  3  3  3  4  4  4  1  2  3  4  5  6  7  8  9 10
TYPE ASSIGNMENTS      1  1  1  1  1  1  1  1  1  1  1  1
EXPONENTS  0.3047525D+04 0.4573695D+03 0.1039487D+03 0.2921016D+02 0.9286663D+01
EXPONENTS  0.3163927D+01 0.7868272D+01 0.1881289D+01 0.5442493D+00 0.7868272D+01
EXPONENTS  0.1881289D+01 0.5442493D+00 0.7868272D+01 0.1881289D+01 0.5442493D+00
EXPONENTS  0.7868272D+01 0.1881289D+01 0.5442493D+00 0.1687145D+00 0.1687145D+00
EXPONENTS  0.1687145D+00 0.1687145D+00 0.8000000D+00 0.8000000D+00 0.8000000D+00
EXPONENTS  0.8000000D+00 0.8000000D+00 0.8000000D+00 0.3047525D+04 0.4573695D+03
EXPONENTS  0.1039487D+03 0.2921016D+02 0.9286663D+01 0.3163927D+01 0.7868272D+01
EXPONENTS  0.1881289D+01 0.5442493D+00 0.7868272D+01 0.1881289D+01 0.5442493D+00
EXPONENTS  0.7868272D+01 0.1881289D+01 0.5442493D+00 0.7868272D+01 0.1881289D+01
EXPONENTS  0.5442493D+00 0.1687145D+00 0.1687145D+00 0.1687145D+00 0.1687145D+00
EXPONENTS  0.8000000D+00 0.8000000D+00 0.8000000D+00 0.8000000D+00 0.8000000D+00
EXPONENTS  0.8000000D+00 0.3047525D+04 0.4573695D+03 0.1039487D+03 0.2921016D+02
EXPONENTS  0.9286663D+01 0.3163927D+01 0.7868272D+01 0.1881289D+01 0.5442493D+00
EXPONENTS  0.7868272D+01 0.1881289D+01 0.5442493D+00 0.7868272D+01 0.1881289D+01
EXPONENTS  0.5442493D+00 0.7868272D+01 0.1881289D+01 0.5442493D+00 0.1687145D+00
EXPONENTS  0.1687145D+00 0.1687145D+00 0.1687145D+00 0.8000000D+00 0.8000000D+00
EXPONENTS  0.8000000D+00 0.8000000D+00 0.8000000D+00 0.8000000D+00 0.3047525D+04
EXPONENTS  0.4573695D+03 0.1039487D+03 0.2921016D+02 0.9286663D+01 0.3163927D+01
EXPONENTS  0.7868272D+01 0.1881289D+01 0.5442493D+00 0.7868272D+01 0.1881289D+01
EXPONENTS  0.5442493D+00 0.7868272D+01 0.1881289D+01 0.5442493D+00 0.7868272D+01
EXPONENTS  0.1881289D+01 0.5442493D+00 0.1687145D+00 0.1687145D+00 0.1687145D+00
EXPONENTS  0.1687145D+00 0.8000000D+00 0.8000000D+00 0.8000000D+00 0.8000000D+00
EXPONENTS  0.8000000D+00 0.8000000D+00 0.3047525D+04 0.4573695D+03 0.1039487D+03
EXPONENTS  0.2921016D+02 0.9286663D+01 0.3163927D+01 0.7868272D+01 0.1881289D+01
EXPONENTS  0.5442493D+00 0.7868272D+01 0.1881289D+01 0.5442493D+00 0.7868272D+01
EXPONENTS  0.1881289D+01 0.5442493D+00 0.7868272D+01 0.1881289D+01 0.5442493D+00
EXPONENTS  0.1687145D+00 0.1687145D+00 0.1687145D+00 0.1687145D+00 0.8000000D+00
EXPONENTS  0.8000000D+00 0.8000000D+00 0.8000000D+00 0.8000000D+00 0.8000000D+00
EXPONENTS  0.3047525D+04 0.4573695D+03 0.1039487D+03 0.2921016D+02 0.9286663D+01
EXPONENTS  0.3163927D+01 0.7868272D+01 0.1881289D+01 0.5442493D+00 0.7868272D+01
EXPONENTS  0.1881289D+01 0.5442493D+00 0.7868272D+01 0.1881289D+01 0.5442493D+00
EXPONENTS  0.7868272D+01 0.1881289D+01 0.5442493D+00 0.1687145D+00 0.1687145D+00
EXPONENTS  0.1687145D+00 0.1687145D+00 0.8000000D+00 0.8000000D+00 0.8000000D+00
EXPONENTS  0.8000000D+00 0.8000000D+00 0.8000000D+00 0.1873114D+02 0.2825394D+01
EXPONENTS  0.6401217D+00 0.1612778D+00 0.1873114D+02 0.2825394D+01 0.6401217D+00
EXPONENTS  0.1612778D+00 0.1873114D+02 0.2825394D+01 0.6401217D+00 0.1612778D+00
EXPONENTS  0.3047525D+04 0.4573695D+03 0.1039487D+03 0.2921016D+02 0.9286663D+01
EXPONENTS  0.3163927D+01 0.7868272D+01 0.1881289D+01 0.5442493D+00 0.7868272D+01
EXPONENTS  0.1881289D+01 0.5442493D+00 0.7868272D+01 0.1881289D+01 0.5442493D+00
EXPONENTS  0.7868272D+01 0.1881289D+01 0.5442493D+00 0.1687145D+00 0.1687145D+00
EXPONENTS  0.1687145D+00 0.1687145D+00 0.8000000D+00 0.8000000D+00 0.8000000D+00
EXPONENTS  0.8000000D+00 0.8000000D+00 0.8000000D+00 0.3047525D+04 0.4573695D+03
EXPONENTS  0.1039487D+03 0.2921016D+02 0.9286663D+01 0.3163927D+01 0.7868272D+01
EXPONENTS  0.1881289D+01 0.5442493D+00 0.7868272D+01 0.1881289D+01 0.5442493D+00
EXPONENTS  0.7868272D+01 0.1881289D+01 0.5442493D+00 0.7868272D+01 0.1881289D+01
EXPONENTS  0.5442493D+00 0.1687145D+00 0.1687145D+00 0.1687145D+00 0.1687145D+00
EXPONENTS  0.8000000D+00 0.8000000D+00 0.8000000D+00 0.8000000D+00 0.8000000D+00
EXPONENTS  0.8000000D+00 0.1873114D+02 0.2825394D+01 0.6401217D+00 0.1612778D+00
EXPONENTS  0.1873114D+02 0.2825394D+01 0.6401217D+00 0.1612778D+00 0.3047525D+04
EXPONENTS  0.4573695D+03 0.1039487D+03 0.2921016D+02 0.9286663D+01 0.3163927D+01
EXPONENTS  0.7868272D+01 0.1881289D+01 0.5442493D+00 0.7868272D+01 0.1881289D+01
EXPONENTS  0.5442493D+00 0.7868272D+01 0.1881289D+01 0.5442493D+00 0.7868272D+01
EXPONENTS  0.1881289D+01 0.5442493D+00 0.1687145D+00 0.1687145D+00 0.1687145D+00
EXPONENTS  0.1687145D+00 0.8000000D+00 0.8000000D+00 0.8000000D+00 0.8000000D+00
EXPONENTS  0.8000000D+00 0.8000000D+00 0.3047525D+04 0.4573695D+03 0.1039487D+03
EXPONENTS  0.2921016D+02 0.9286663D+01 0.3163927D+01 0.7868272D+01 0.1881289D+01
EXPONENTS  0.5442493D+00 0.7868272D+01 0.1881289D+01 0.5442493D+00 0.7868272D+01
EXPONENTS  0.1881289D+01 0.5442493D+00 0.7868272D+01 0.1881289D+01 0.5442493D+00
EXPONENTS  0.1687145D+00 0.1687145D+00 0.1687145D+00 0.1687145D+00 0.8000000D+00
EXPONENTS  0.8000000D+00 0.8000000D+00 0.8000000D+00 0.8000000D+00 0.8000000D+00
EXPONENTS  0.1873114D+02 0.2825394D+01 0.6401217D+00 0.1612778D+00 0.1873114D+02
EXPONENTS  0.2825394D+01 0.6401217D+00 0.1612778D+00 0.1873114D+02 0.2825394D+01
EXPONENTS  0.6401217D+00 0.1612778D+00
MO    1     MO 0.0        OCC NO =    1.0000000  ORB. ENERGY =  -10.396558
 -0.59191332D-02 -0.10919645D-01 -0.17627693D-01 -0.22946018D-01 -0.19579879D-01
 -0.67604617D-02  0.55710965D-04  0.25677133D-04 -0.72001361D-04 -0.19591072D-03
 -0.15021191D-03 -0.74966272D-04 -0.12479842D-03 -0.95687514D-04 -0.47754776D-04
  0.19917181D-09  0.15271231D-09  0.76214148D-10 -0.13056423D-02  0.55150490D-03
 -0.14249669D-03 -0.91970916D-09  0.30607383D-03  0.34328832D-03  0.26091677D-03
  0.10336908D-03 -0.47120306D-09 -0.45328647D-09 -0.25926044D+00 -0.47828489D+00
 -0.77210012D+00 -0.10050449D+01 -0.85760667D+00 -0.29611097D+00  0.98509989D-02
  0.45403164D-02 -0.12731521D-01 -0.45685546D-05 -0.35028779D-05 -0.17481816D-05
 -0.32019179D-03 -0.24550276D-03 -0.12252308D-03 -0.21222528D-09 -0.16272088D-09
 -0.81209125D-10  0.20092040D-02  0.95497068D-04  0.61533245D-03 -0.45616906D-09
  0.50332787D-02  0.51522174D-02  0.51409401D-02 -0.72451762D-04  0.19172723D-09
 -0.14715442D-08 -0.11114030D-01 -0.20503216D-01 -0.33098547D-01 -0.43084474D-01
 -0.36764060D-01 -0.12693746D-01  0.12187151D-03  0.56170467D-04 -0.15750785D-03
 -0.77222248D-05 -0.59209122D-05 -0.29549501D-05 -0.17960206D-03 -0.13770747D-03
 -0.68725678D-04 -0.41631866D-09 -0.31920674D-09 -0.15930654D-09 -0.24239495D-02
  0.24593739D-04 -0.48702773D-03  0.61780161D-09  0.65068358D-03  0.59951180D-03
  0.49876477D-03  0.38885278D-05  0.33956905D-09 -0.70622851D-09  0.11292265D-01
  0.20832024D-01  0.33629346D-01  0.43775417D-01  0.37353642D-01  0.12897315D-01
 -0.12542226D-03 -0.57807007D-04  0.16209688D-03  0.13021592D-04  0.99841306D-05
  0.49827809D-05 -0.18158168D-03 -0.13922532D-03 -0.69483191D-04  0.69077581D-09
  0.52964308D-09  0.26432902D-09  0.24374462D-02 -0.30138841D-04 -0.48556998D-03
 -0.11905126D-08 -0.65985398D-03 -0.60752533D-03 -0.50548382D-03  0.58922242D-05
 -0.20414350D-09 -0.14989229D-09  0.26035867D+00  0.48031090D+00  0.77537072D+00
  0.10093023D+01  0.86123948D+00  0.29736530D+00 -0.98914893D-02 -0.45589784D-02
  0.12783851D-01  0.47733010D-05  0.36598645D-05  0.18265289D-05 -0.32174349D-03
 -0.24669250D-03 -0.12311685D-03 -0.31890268D-10 -0.24451435D-10 -0.12202980D-10
 -0.20133846D-02 -0.95976377D-04  0.61548463D-03  0.12190952D-08 -0.50540432D-02
 -0.51734489D-02 -0.51639145D-02 -0.71792518D-04 -0.48008011D-09 -0.35382477D-08
  0.59440473D-02  0.10965607D-01  0.17701889D-01  0.23042600D-01  0.19662292D-01
  0.67889170D-02 -0.55742705D-04 -0.25691762D-04  0.72042381D-04  0.19729201D-03
  0.15127100D-03  0.75494830D-04 -0.12482348D-03 -0.95706730D-04 -0.47764366D-04
 -0.79129999D-09 -0.60671864D-09 -0.30279512D-09  0.13075839D-02 -0.55267351D-03
 -0.14253965D-03  0.12964528D-08 -0.30701462D-03 -0.34450628D-03 -0.26239743D-03
  0.10421969D-03  0.44012717D-09 -0.94149548D-09  0.63011274D-04  0.10687905D-03
  0.12167802D-03  0.23742790D-04 -0.11955347D-04 -0.20278532D-04 -0.23086392D-04
 -0.13392015D-03  0.61148503D-04  0.10371943D-03  0.11808091D-03  0.23357571D-04
 -0.26861393D+00 -0.49554025D+00 -0.79995562D+00 -0.10413045D+01 -0.88854704D+00
 -0.30679394D+00  0.10207389D-01  0.47045764D-02 -0.13192123D-01  0.64556015D-05
  0.49497457D-05  0.24702700D-05 -0.32868670D-03 -0.25201612D-03 -0.12577370D-03
  0.13597950D-08  0.10426046D-08  0.52033276D-09  0.21032254D-02 -0.92649413D-04
  0.64076467D-03 -0.14119092D-08  0.52193127D-02  0.53398237D-02  0.53262808D-02
  0.74823185D-04 -0.19093485D-09  0.15245348D-08  0.27562742D+00  0.50847878D+00
  0.82084241D+00  0.10684929D+01  0.91174695D+00  0.31480431D+00 -0.10471395D-01
 -0.48262563D-02  0.13533326D-01 -0.75158268D-05 -0.57626593D-05 -0.28759709D-05
 -0.33503743D-03 -0.25688545D-03 -0.12820384D-03  0.19615663D-09  0.15040046D-09
  0.75060371D-10 -0.21435332D-02  0.91936491D-04  0.64727338D-03  0.61273018D-09
 -0.53568110D-02 -0.54801148D-02 -0.54682784D-02  0.76841292D-04  0.72036199D-09
  0.21078419D-08 -0.61355015D-04 -0.10406972D-03 -0.11847970D-03 -0.22745490D-04
  0.11957823D-04  0.20282731D-04  0.23091173D-04  0.13443503D-03  0.62967554D-02
  0.11616284D-01  0.18752285D-01  0.24409903D-01  0.20829014D-01  0.71917581D-02
 -0.60612812D-04 -0.27936390D-04  0.78336553D-04 -0.20873215D-03 -0.16004257D-03
 -0.79872461D-04 -0.12996471D-03 -0.99648699D-04 -0.49731685D-04 -0.30096831D-09
 -0.23076341D-09 -0.11516712D-09  0.13689306D-02  0.57740088D-03 -0.14975459D-03
  0.83971993D-09 -0.32552125D-03 -0.36227930D-03 -0.27676521D-03 -0.10853942D-03
 -0.97854789D-09  0.23991278D-09 -0.61298148D-02 -0.11308311D-01 -0.18255121D-01
 -0.23762743D-01 -0.20276792D-01 -0.70010889D-02  0.57627731D-04  0.26560569D-04
 -0.74478607D-04  0.20305946D-03  0.15569312D-03  0.77701777D-04 -0.12922621D-03
 -0.99082464D-04 -0.49449094D-04  0.15579135D-09  0.11945093D-09  0.59614384D-10
 -0.13573925D-02 -0.57234760D-03 -0.15024598D-03 -0.93344397D-09  0.31783732D-03
  0.35519179D-03  0.27059007D-03 -0.10463817D-03 -0.41816673D-09 -0.12302982D-08
 -0.64069051D-04 -0.10867324D-03 -0.12372064D-03 -0.20828801D-04  0.12494282D-04
  0.21192666D-04  0.24127102D-04  0.14011982D-03 -0.12524919D-04 -0.21244633D-04
 -0.24186264D-04 -0.13886942D-03
MO    2     MO 0.0        OCC NO =    1.0000000  ORB. ENERGY =  -10.396551
  0.66002545D-02  0.12176181D-01  0.19656131D-01  0.25586442D-01  0.21832958D-01
  0.75383956D-02 -0.10116759D-03 -0.46628052D-04  0.13074992D-03  0.24177153D-03
  0.18537508D-03  0.92515155D-04  0.32388027D-04  0.24833085D-04  0.12393450D-04
 -0.79212453D-09 -0.60735085D-09 -0.30311064D-09  0.52684969D-03 -0.23834561D-03
 -0.16370698D-05  0.44578637D-09 -0.30039802D-03 -0.29079065D-03 -0.26579522D-03
 -0.15740069D-03  0.86158174D-10  0.63632837D-09  0.27987802D+00  0.51632030D+00
  0.83350105D+00  0.10849707D+01  0.92580747D+00  0.31965907D+00 -0.10514477D-01
 -0.48461127D-02  0.13589006D-01  0.43700367D-04  0.33506670D-04  0.16722176D-04
  0.27266019D-03  0.20905854D-03  0.10433486D-03 -0.61904988D-09 -0.47464818D-09
 -0.23688271D-09 -0.16023203D-02  0.10658484D-04 -0.25940417D-03  0.35994298D-09
 -0.54651179D-02 -0.55746208D-02 -0.56839872D-02  0.47624191D-04 -0.36180457D-09
  0.86594723D-09  0.11762453D-01  0.21699429D-01  0.35029606D-01  0.45598139D-01
  0.38908974D-01  0.13434334D-01 -0.23333497D-03 -0.10754387D-03  0.30156425D-03
 -0.19763307D-04 -0.15153250D-04 -0.75625339D-05  0.13103427D-03  0.10046877D-03
  0.50140955D-04 -0.11576634D-09 -0.88762289D-10 -0.44298603D-10  0.90503127D-03
  0.69455966D-04 -0.90436615D-04 -0.13451070D-09 -0.60603232D-03 -0.52972931D-03
 -0.44421551D-03  0.10295150D-04 -0.21487790D-09  0.42047162D-09  0.11553567D-01
  0.21314076D-01  0.34407527D-01  0.44788377D-01  0.38218003D-01  0.13195758D-01
 -0.23102696D-03 -0.10648011D-03  0.29858135D-03  0.41701114D-04  0.31973769D-04
  0.15957152D-04 -0.12766720D-03 -0.97887112D-04 -0.48852530D-04 -0.33250714D-09
 -0.25494539D-09 -0.12723562D-09  0.85972681D-03 -0.92641787D-04  0.99496170D-04
 -0.90837857D-10 -0.59381440D-03 -0.51847615D-03 -0.43485539D-03  0.18643679D-04
 -0.99026629D-09 -0.25279504D-09  0.23846949D+00  0.43992965D+00  0.71018286D+00
  0.92444707D+00  0.78883236D+00  0.27236486D+00 -0.89400022D-02 -0.41204388D-02
  0.11554141D-01  0.36783814D-04  0.28203496D-04  0.14075521D-04 -0.23431803D-03
 -0.17966020D-03 -0.89663033D-04 -0.57768815D-09 -0.44293463D-09 -0.22105542D-09
 -0.12319158D-02  0.21725368D-05  0.16295987D-03  0.66546253D-09 -0.46452093D-02
 -0.47443425D-02 -0.48606902D-02 -0.35342578D-04 -0.38857349D-09 -0.12736995D-08
  0.56525267D-02  0.10427808D-01  0.16833715D-01  0.21912496D-01  0.18697972D-01
  0.64559605D-02 -0.90024262D-04 -0.41492100D-04  0.11634818D-03  0.21051649D-03
  0.16141069D-03  0.80555248D-04 -0.15863806D-04 -0.12163360D-04 -0.60703691D-05
 -0.98663647D-09 -0.75649027D-09 -0.37754166D-09  0.33455718D-03 -0.16040311D-03
  0.26568413D-04  0.37006334D-09 -0.24971725D-03 -0.24029872D-03 -0.22520488D-03
  0.14714405D-03  0.76542736D-09 -0.83282599D-09 -0.39423408D-04 -0.66869561D-04
 -0.76128632D-04  0.11637375D-03  0.42514077D-07  0.72111922D-07  0.82096874D-07
  0.66128218D-04 -0.44439221D-04 -0.75377330D-04 -0.85814426D-04  0.11388143D-03
  0.25567024D+00  0.47166167D+00  0.76140818D+00  0.99112721D+00  0.84573064D+00
  0.29201047D+00 -0.95909712D-02 -0.44204699D-02  0.12395459D-01 -0.38788925D-04
 -0.29740887D-04 -0.14842787D-04  0.25031016D-03  0.19192195D-03  0.95782505D-04
 -0.56845651D-09 -0.43585639D-09 -0.21752289D-09 -0.13453863D-02 -0.29063128D-05
 -0.18788415D-03  0.12430219D-09 -0.49831119D-02 -0.50893255D-02 -0.52053316D-02
 -0.42372398D-04  0.47572844D-09 -0.12521041D-08  0.28716281D+00  0.52975931D+00
  0.85519578D+00  0.11132108D+01  0.94990479D+00  0.32797930D+00 -0.10788690D-01
 -0.49724974D-02  0.13943402D-01 -0.45497145D-04 -0.34884325D-04 -0.17409723D-04
 -0.27648271D-03 -0.21198940D-03 -0.10579757D-03  0.10558749D-09  0.80957788D-10
  0.40403610D-10 -0.16387207D-02 -0.14890119D-04  0.26085751D-03 -0.22010979D-09
 -0.56104227D-02 -0.57225086D-02 -0.58319663D-02  0.51903428D-04  0.71906670D-09
  0.13453983D-08 -0.36502684D-04 -0.61915462D-04 -0.70488565D-04  0.11203273D-03
 -0.18230987D-05 -0.30923205D-05 -0.35204976D-05  0.47831047D-04  0.67774479D-02
  0.12503068D-01  0.20183829D-01  0.26273348D-01  0.22419095D-01  0.77407748D-02
 -0.10606218D-03 -0.48883963D-04  0.13707573D-03 -0.24693819D-03 -0.18933654D-03
 -0.94492204D-04 -0.31489073D-04 -0.24143824D-04 -0.12049460D-04 -0.76621447D-09
 -0.58748466D-09 -0.29319602D-09  0.52189505D-03  0.23589527D-03  0.54415509D-05
  0.66748507D-09 -0.30842252D-03 -0.29632013D-03 -0.27045656D-03 -0.16173960D-03
  0.39143752D-09 -0.30589680D-09  0.60560055D-02  0.11172148D-01  0.18035310D-01
  0.23476615D-01  0.20032638D-01  0.69167887D-02 -0.97056105D-04 -0.44733070D-04
  0.12543620D-03 -0.22318258D-03 -0.17112225D-03 -0.85401994D-04  0.19707224D-04
  0.15110249D-04  0.75410734D-05 -0.44310866D-09 -0.33974761D-09 -0.16955787D-09
  0.37936416D-03  0.17895397D-03 -0.24916382D-04  0.26482411D-09 -0.26944976D-03
 -0.25892437D-03 -0.23984370D-03  0.15540803D-03  0.10886109D-09  0.57922381D-09
 -0.45034381D-04 -0.76386833D-04 -0.86963710D-04  0.11906523D-03 -0.25147317D-06
 -0.42654610D-06 -0.48560765D-06  0.65101915D-04 -0.16613291D-05 -0.28179286D-05
 -0.32081121D-05  0.51904303D-04
MO    3     MO 0.0        OCC NO =    1.0000000  ORB. ENERGY =  -10.396550
 -0.57447145D-02 -0.10597877D-01 -0.17108259D-01 -0.22269870D-01 -0.19002920D-01
 -0.65612516D-02  0.66978069D-04  0.30870131D-04 -0.86563069D-04 -0.18802239D-03
 -0.14416364D-03 -0.71947761D-04 -0.10408486D-03 -0.79805665D-04 -0.39828620D-04
 -0.28184085D-10 -0.21609768D-10 -0.10784789D-10 -0.12167255D-02  0.48895094D-03
 -0.16609554D-03 -0.66333380D-09  0.31245807D-03  0.30781527D-03  0.24687377D-03
  0.51386302D-04 -0.65956787D-09 -0.28304337D-09 -0.25183145D+00 -0.46457985D+00
 -0.74997593D+00 -0.97624582D+00 -0.83303233D+00 -0.28762604D+00  0.95853737D-02
  0.44178900D-02 -0.12388225D-01 -0.46800578D-04 -0.35883714D-04 -0.17908488D-04
 -0.22339253D-03 -0.17128322D-03 -0.85482333D-04  0.79549180D-09  0.60993265D-09
  0.30439914D-09  0.23548165D-02 -0.71529945D-04  0.61455616D-03 -0.45387113D-09
  0.50030991D-02  0.50571511D-02  0.49997867D-02 -0.77527878D-04 -0.25927707D-09
 -0.88492192D-09  0.55035231D-03  0.10152925D-02  0.16389970D-02  0.21334871D-02
  0.18205084D-02  0.62857779D-03 -0.13195337D-04 -0.60817190D-05  0.17053775D-04
  0.44511862D-03  0.34128873D-03  0.17032699D-03  0.48320288D-05  0.37048932D-05
  0.18490013D-05 -0.24095252D-09 -0.18474711D-09 -0.92201754D-10  0.59240043D-05
 -0.11776290D-02 -0.17529876D-04 -0.74513072D-10 -0.26571715D-04 -0.22507017D-04
 -0.18967825D-04 -0.20990754D-03 -0.14513615D-09  0.16117617D-09  0.10572927D-02
  0.19504986D-02  0.31487096D-02  0.40986843D-02  0.34974147D-02  0.12075733D-02
 -0.18809429D-04 -0.86692486D-05  0.24309478D-04 -0.44989914D-03 -0.34495413D-03
 -0.17215629D-03 -0.12993171D-04 -0.99623393D-05 -0.49719055D-05 -0.98459846D-09
 -0.75492765D-09 -0.37676181D-09  0.11573892D-03  0.11826780D-02 -0.44402038D-05
  0.71012699D-09 -0.56182935D-04 -0.49787278D-04 -0.41666842D-04 -0.21172515D-03
 -0.52610747D-09 -0.45838371D-09  0.29110193D+00  0.53702622D+00  0.86692683D+00
  0.11284812D+01  0.96293501D+00  0.33247832D+00 -0.11060144D-01 -0.50976103D-02
  0.14294231D-01  0.52915558D-04  0.40572294D-04  0.20248418D-04 -0.26120652D-03
 -0.20027660D-03 -0.99952058D-04 -0.21090557D-09 -0.16170902D-09 -0.80704132D-10
 -0.25718028D-02  0.73113183D-04  0.64746114D-03  0.94126092D-09 -0.57698698D-02
 -0.58397046D-02 -0.57978733D-02 -0.84884754D-04  0.24008291D-10 -0.24739388D-08
  0.66723381D-02  0.12309161D-01  0.19870802D-01  0.25865880D-01  0.22071403D-01
  0.76207249D-02 -0.81838395D-04 -0.37719242D-04  0.10576869D-03  0.22179534D-03
  0.17005860D-03  0.84871158D-04 -0.10783856D-03 -0.82683764D-04 -0.41264993D-04
 -0.62132249D-09 -0.47639068D-09 -0.23775233D-09  0.12818762D-02 -0.51876917D-03
 -0.16384774D-03  0.11384326D-08 -0.35436931D-03 -0.34789870D-03 -0.28350109D-03
  0.74203635D-04  0.48067813D-09 -0.61141987D-09 -0.50576092D-04 -0.85786624D-04
 -0.97665039D-04  0.24516262D-04 -0.12273819D-04 -0.20818720D-04 -0.23701377D-04
 -0.11361090D-03  0.47689857D-04  0.80891023D-04  0.92091571D-04 -0.75738837D-05
  0.27642157D+00  0.50994383D+00  0.82320745D+00  0.10715715D+01  0.91437391D+00
  0.31571134D+00 -0.10502923D-01 -0.48407877D-02  0.13574074D-01 -0.52242333D-04
 -0.40056107D-04 -0.19990805D-04  0.24430424D-03  0.18731699D-03  0.93484307D-04
 -0.14246856D-08 -0.10923586D-08 -0.54516348D-09 -0.24621000D-02 -0.76817381D-04
 -0.61614641D-03  0.92665419D-09 -0.54839062D-02 -0.55472295D-02 -0.55059542D-02
 -0.80336093D-04  0.73969244D-10 -0.15581196D-08 -0.24248615D+00 -0.44733960D+00
 -0.72214482D+00 -0.94001799D+00 -0.80211906D+00 -0.27695243D+00  0.92297390D-02
  0.42539783D-02 -0.11928599D-01  0.46959294D-04  0.36005408D-04  0.17969222D-04
  0.21080786D-03  0.16163410D-03  0.80666742D-04  0.47652871D-09  0.36537199D-09
  0.18234623D-09  0.22777678D-02  0.76307623D-04 -0.58898948D-03 -0.19691496D-09
  0.48224181D-02  0.48720678D-02  0.48152034D-02 -0.75434507D-04 -0.14145125D-10
 -0.19833436D-08 -0.53776939D-04 -0.91215867D-04 -0.10384604D-03  0.24530519D-04
  0.12132225D-04  0.20578550D-04  0.23427952D-04  0.12191048D-03 -0.55337933D-02
 -0.10208768D-01 -0.16480117D-01 -0.21452216D-01 -0.18305215D-01 -0.63203507D-02
  0.65685974D-04  0.30274605D-04 -0.84893153D-04  0.18087952D-03  0.13868694D-03
  0.69214505D-04  0.98664016D-04  0.75649310D-04  0.37754307D-04  0.23976108D-10
  0.18383359D-10  0.91745845D-11 -0.11607790D-02 -0.46525852D-03  0.15924181D-03
 -0.57591883D-09  0.30129753D-03  0.29457889D-03  0.23688872D-03  0.48001973D-04
  0.98143950D-09 -0.42834176D-09  0.63349465D-02  0.11686739D-01  0.18866021D-01
  0.24557954D-01  0.20955346D-01  0.72353775D-02 -0.77949792D-04 -0.35926988D-04
  0.10074302D-03 -0.21076564D-03 -0.16160172D-03 -0.80650585D-04  0.10177509D-03
  0.78034687D-04  0.38944778D-04 -0.25604418D-10 -0.19631843D-10 -0.97976658D-11
  0.12172400D-02  0.49156715D-03  0.15746326D-03  0.78100393D-09 -0.33716139D-03
 -0.32940060D-03 -0.26931119D-03  0.68072185D-04  0.43769965D-09  0.93657826D-09
  0.45255012D-04  0.76761066D-04  0.87389760D-04 -0.96348837D-05 -0.11706494D-04
 -0.19856430D-04 -0.22605844D-04 -0.10776024D-03  0.11594058D-04  0.19665717D-04
  0.22388724D-04  0.11539676D-03
MO    4     MO 0.0        OCC NO =    1.0000000  ORB. ENERGY =  -10.396543
  0.64592217D-02  0.11916003D-01  0.19236123D-01  0.25039717D-01  0.21366436D-01
  0.73773168D-02 -0.13199333D-03 -0.60835607D-04  0.17058939D-03  0.19926641D-03
  0.15278484D-03  0.76250345D-04  0.32515048D-04  0.24930477D-04  0.12442055D-04
 -0.47956254D-09 -0.36769814D-09 -0.18350714D-09  0.44401876D-03 -0.17985413D-03
 -0.23320725D-04  0.29585391D-09 -0.30855431D-03 -0.26891784D-03 -0.21571544D-03
 -0.14045993D-03  0.34757814D-09  0.72901240D-09  0.27248109D+00  0.50267441D+00
  0.81147236D+00  0.10562959D+01  0.90133921D+00  0.31121077D+00 -0.10294311D-01
 -0.47446384D-02  0.13304461D-01  0.42339165D-04  0.32462986D-04  0.16201305D-04
  0.22099592D-03  0.16944565D-03  0.84565256D-04 -0.12415301D-08 -0.95192652D-09
 -0.47507805D-09 -0.16668400D-02  0.55189736D-04 -0.29227003D-03  0.43307541D-09
 -0.53764242D-02 -0.54838558D-02 -0.54834037D-02  0.12353804D-03 -0.25984481D-09
  0.43668635D-09  0.20697868D-03  0.38183525D-03  0.61640049D-03  0.80237029D-03
  0.68466402D-03  0.23639803D-03 -0.46491173D-05 -0.21427739D-05  0.60085617D-05
 -0.48008638D-03 -0.36809979D-03 -0.18370759D-03  0.19944457D-05  0.15292145D-05
  0.76318519D-06 -0.28120457D-09 -0.21560983D-09 -0.10760442D-09  0.73286386D-05
  0.51182254D-03 -0.46954130D-05  0.60820727D-10 -0.10205726D-04 -0.87610538D-05
 -0.73718598D-05  0.18293600D-03 -0.30558533D-10  0.78979372D-10  0.32337683D-03
  0.59656711D-03  0.96304428D-03  0.12535975D-02  0.10696970D-02  0.36934068D-03
 -0.59241429D-05 -0.27304320D-05  0.76564164D-05 -0.47406949D-03 -0.36348641D-03
 -0.18140520D-03 -0.38804923D-05 -0.29753154D-05 -0.14848909D-05 -0.13165596D-09
 -0.10094544D-09 -0.50378847D-10  0.32736424D-04  0.49596766D-03 -0.39053541D-06
 -0.58475937D-10 -0.17053963D-04 -0.15056991D-04 -0.12607569D-04 -0.18010219D-03
 -0.19582672D-09 -0.49068362D-09  0.27169487D+00  0.50122399D+00  0.80913093D+00
  0.10532481D+01  0.89873847D+00  0.31031280D+00 -0.10264323D-01 -0.47308172D-02
  0.13265705D-01  0.41756619D-04  0.32016327D-04  0.15978391D-04 -0.22125157D-03
 -0.16964167D-03 -0.84663082D-04 -0.11467957D-08 -0.87929018D-09 -0.43882742D-09
 -0.16559900D-02  0.53203609D-04  0.29056912D-03  0.10080683D-08 -0.53596223D-02
 -0.54675230D-02 -0.54676027D-02 -0.12326096D-03 -0.64014350D-09 -0.15105041D-08
  0.64402234D-02  0.11880955D-01  0.19179545D-01  0.24966068D-01  0.21303591D-01
  0.73556182D-02 -0.13157340D-03 -0.60642061D-04  0.17004667D-03  0.19868579D-03
  0.15233966D-03  0.76028166D-04 -0.32460163D-04 -0.24888394D-04 -0.12421053D-04
 -0.64416381D-09 -0.49390395D-09 -0.24649269D-09  0.44161227D-03 -0.17915395D-03
  0.23957646D-04  0.29343816D-09 -0.30743565D-03 -0.26827574D-03 -0.21501543D-03
  0.14074461D-03  0.11155477D-08 -0.10264074D-08  0.37898378D-04  0.64282822D-04
  0.73183721D-04 -0.10092032D-03 -0.14409074D-05 -0.24440516D-05 -0.27824664D-05
  0.34466138D-04 -0.39123839D-04 -0.66361435D-04 -0.75550149D-04  0.10639415D-03
 -0.26321700D+00 -0.48558398D+00 -0.78388310D+00 -0.10203829D+01 -0.87069456D+00
 -0.30062991D+00  0.99478285D-02  0.45849451D-02 -0.12856665D-01  0.40556375D-04
  0.31096056D-04  0.15519111D-04 -0.21267694D-03 -0.16306718D-03 -0.81381954D-04
  0.10263774D-08  0.78696113D-09  0.39274876D-09  0.16224205D-02  0.53859246D-04
  0.28896823D-03 -0.27624416D-09  0.51954393D-02  0.52992782D-02  0.52935777D-02
  0.12233842D-03 -0.44060200D-09  0.15383942D-08 -0.25686619D+00 -0.47386796D+00
 -0.76496981D+00 -0.99576340D+00 -0.84968671D+00 -0.29337640D+00  0.97064211D-02
  0.44736806D-02 -0.12544667D-01  0.39812542D-04  0.30525732D-04  0.15234480D-04
  0.20610474D-03  0.15802804D-03  0.78867068D-04  0.20797763D-09  0.15946406D-09
  0.79583741D-10  0.15683212D-02  0.53842924D-04 -0.27409708D-03  0.22774222D-09
  0.50705611D-02  0.51723367D-02  0.51674295D-02 -0.12048078D-03 -0.43406837D-09
 -0.15144225D-08 -0.39112884D-04 -0.66342853D-04 -0.75528994D-04  0.10593325D-03
 -0.14724266D-05 -0.24975142D-05 -0.28433317D-05  0.34358619D-04 -0.60929440D-02
 -0.11240292D-01 -0.18145316D-01 -0.23619810D-01 -0.20154827D-01 -0.69589774D-02
  0.12653696D-03  0.58320768D-04 -0.16353752D-03  0.18610749D-03  0.14269542D-03
  0.71215015D-04  0.30003229D-04  0.23004573D-04  0.11480894D-04  0.39199028D-09
  0.30055328D-09  0.14999715D-09 -0.40763231D-03 -0.16402124D-03 -0.24829742D-04
 -0.44513195D-09  0.29136685D-03  0.25228704D-03  0.20086715D-03  0.13258327D-03
 -0.20203939D-09  0.34708328D-09 -0.62371688D-02 -0.11506359D-01 -0.18574830D-01
 -0.24178910D-01 -0.20631908D-01 -0.71237019D-02  0.12808443D-03  0.59033996D-04
 -0.16553749D-03  0.19090979D-03  0.14637752D-03  0.73052639D-04 -0.32721052D-04
 -0.25088427D-04 -0.12520883D-04  0.11135828D-09  0.85382467D-10  0.42611835D-10
 -0.43798742D-03 -0.17651548D-03  0.21124511D-04 -0.20672725D-09  0.29902091D-03
  0.26024666D-03  0.20713289D-03 -0.13449549D-03  0.17211570D-09 -0.61374744D-09
  0.36583630D-04  0.62052761D-04  0.70644875D-04 -0.10093299D-03  0.15588639D-05
  0.26441282D-05  0.30102465D-05 -0.30304640D-04  0.12704565D-05  0.21549347D-05
  0.24533170D-05 -0.33275753D-04
MO    5     MO 0.0        OCC NO =    1.0000000  ORB. ENERGY =  -10.385870
 -0.12357324D-02 -0.22796849D-02 -0.36801183D-02 -0.47904206D-02 -0.40876746D-02
 -0.14113758D-02  0.72238131D-04  0.33294489D-04 -0.93361221D-04  0.27091829D-04
  0.20772296D-04  0.10366832D-04  0.31373540D-05  0.24055240D-05  0.12005251D-05
  0.35041778D-09  0.26867813D-09  0.13408922D-09 -0.19702098D-04  0.13520392D-04