 Generated by Multiwfn
GAUSSIAN             34 MOL ORBITALS    312 PRIMITIVES       18 NUCLEI
  C    1    (CENTRE  1)   4.58037780 -1.33388033 -0.00000287  CHARGE =  6.0
  C    2    (CENTRE  2)   2.34442455 -2.63986880  0.00000134  CHARGE =  6.0
  C    3    (CENTRE  3)   0.00002417 -1.34924843  0.00000232  CHARGE =  6.0
  C    4    (CENTRE  4)  -0.00002598  1.34923982  0.00000333  CHARGE =  6.0
  C    5    (CENTRE  5)   2.34439793  2.63986949  0.00000376  CHARGE =  6.0
  C    6    (CENTRE  6)   4.58035284  1.33390941 -0.00000274  CHARGE =  6.0
  H    7    (CENTRE  7)  -2.34161961 -4.68624211  0.00001334  CHARGE =  1.0
  H    8    (CENTRE  8)   6.35796619 -2.34379032 -0.00000505  CHARGE =  1.0
  H    9    (CENTRE  9)   2.34166308 -4.68622320 -0.00000204  CHARGE =  1.0
  C   10    (CENTRE 10)  -2.34440976 -2.63988367  0.00000161  CHARGE =  6.0
  C   11    (CENTRE 11)  -2.34443060  2.63988361  0.00000098  CHARGE =  6.0
  H   12    (CENTRE 12)   2.34163295  4.68623028 -0.00000372  CHARGE =  1.0
  H   13    (CENTRE 13)   6.35793788  2.34382689 -0.00000707  CHARGE =  1.0
  C   14    (CENTRE 14)  -4.58036766  1.33388674 -0.00000251  CHARGE =  6.0
  C   15    (CENTRE 15)  -4.58034670 -1.33390529 -0.00000359  CHARGE =  6.0
  H   16    (CENTRE 16)  -2.34163688  4.68623391  0.00000979  CHARGE =  1.0
  H   17    (CENTRE 17)  -6.35798242  2.34375640 -0.00001111  CHARGE =  1.0
  H   18    (CENTRE 18)  -6.35794092 -2.34380723 -0.00000389  CHARGE =  1.0
CENTRE ASSIGNMENTS    1  1  1  1  1  1  1  1  1  1  1  1  1  1  1  1  1  1  1  1
CENTRE ASSIGNMENTS    1  1  1  1  1  1  1  1  2  2  2  2  2  2  2  2  2  2  2  2
CENTRE ASSIGNMENTS    2  2  2  2  2  2  2  2  2  2  2  2  2  2  2  2  3  3  3  3
CENTRE ASSIGNMENTS    3  3  3  3  3  3  3  3  3  3  3  3  3  3  3  3  3  3  3  3
CENTRE ASSIGNMENTS    3  3  3  3  4  4  4  4  4  4  4  4  4  4  4  4  4  4  4  4
CENTRE ASSIGNMENTS    4  4  4  4  4  4  4  4  4  4  4  4  5  5  5  5  5  5  5  5
CENTRE ASSIGNMENTS    5  5  5  5  5  5  5  5  5  5  5  5  5  5  5  5  5  5  5  5
CENTRE ASSIGNMENTS    6  6  6  6  6  6  6  6  6  6  6  6  6  6  6  6  6  6  6  6
CENTRE ASSIGNMENTS    6  6  6  6  6  6  6  6  7  7  7  7  8  8  8  8  9  9  9  9
CENTRE ASSIGNMENTS   10 10 10 10 10 10 10 10 10 10 10 10 10 10 10 10 10 10 10 10
CENTRE ASSIGNMENTS   10 10 10 10 10 10 10 10 11 11 11 11 11 11 11 11 11 11 11 11
CENTRE ASSIGNMENTS   11 11 11 11 11 11 11 11 11 11 11 11 11 11 11 11 12 12 12 12
CENTRE ASSIGNMENTS   13 13 13 13 14 14 14 14 14 14 14 14 14 14 14 14 14 14 14 14
CENTRE ASSIGNMENTS   14 14 14 14 14 14 14 14 14 14 14 14 15 15 15 15 15 15 15 15
CENTRE ASSIGNMENTS   15 15 15 15 15 15 15 15 15 15 15 15 15 15 15 15 15 15 15 15
CENTRE ASSIGNMENTS   16 16 16 16 17 17 17 17 18 18 18 18
TYPE ASSIGNMENTS      1  1  1  1  1  1  1  1  1  2  2  2  3  3  3  4  4  4  1  2
TYPE ASSIGNMENTS      3  4  5  6  7  8  9 10  1  1  1  1  1  1  1  1  1  2  2  2
TYPE ASSIGNMENTS      3  3  3  4  4  4  1  2  3  4  5  6  7  8  9 10  1  1  1  1
TYPE ASSIGNMENTS      1  1  1  1  1  2  2  2  3  3  3  4  4  4  1  2  3  4  5  6
TYPE ASSIGNMENTS      7  8  9 10  1  1  1  1  1  1  1  1  1  2  2  2  3  3  3  4
TYPE ASSIGNMENTS      4  4  1  2  3  4  5  6  7  8  9 10  1  1  1  1  1  1  1  1
TYPE ASSIGNMENTS      1  2  2  2  3  3  3  4  4  4  1  2  3  4  5  6  7  8  9 10
TYPE ASSIGNMENTS      1  1  1  1  1  1  1  1  1  2  2  2  3  3  3  4  4  4  1  2
TYPE ASSIGNMENTS      3  4  5  6  7  8  9 10  1  1  1  1  1  1  1  1  1  1  1  1
TYPE ASSIGNMENTS      1  1  1  1  1  1  1  1  1  2  2  2  3  3  3  4  4  4  1  2
TYPE ASSIGNMENTS      3  4  5  6  7  8  9 10  1  1  1  1  1  1  1  1  1  2  2  2
TYPE ASSIGNMENTS      3  3  3  4  4  4  1  2  3  4  5  6  7  8  9 10  1  1  1  1
TYPE ASSIGNMENTS      1  1  1  1  1  1  1  1  1  1  1  1  1  2  2  2  3  3  3  4
TYPE ASSIGNMENTS      4  4  1  2  3  4  5  6  7  8  9 10  1  1  1  1  1  1  1  1
TYPE ASSIGNMENTS      1  2  2  2  3  3  3  4  4  4  1  2  3  4  5  6  7  8  9 10
TYPE ASSIGNMENTS      1  1  1  1  1  1  1  1  1  1  1  1
EXPONENTS  0.3047525D+04 0.4573695D+03 0.1039487D+03 0.2921016D+02 0.9286663D+01
EXPONENTS  0.3163927D+01 0.7868272D+01 0.1881289D+01 0.5442493D+00 0.7868272D+01
EXPONENTS  0.1881289D+01 0.5442493D+00 0.7868272D+01 0.1881289D+01 0.5442493D+00
EXPONENTS  0.7868272D+01 0.1881289D+01 0.5442493D+00 0.1687145D+00 0.1687145D+00
EXPONENTS  0.1687145D+00 0.1687145D+00 0.8000000D+00 0.8000000D+00 0.8000000D+00
EXPONENTS  0.8000000D+00 0.8000000D+00 0.8000000D+00 0.3047525D+04 0.4573695D+03
EXPONENTS  0.1039487D+03 0.2921016D+02 0.9286663D+01 0.3163927D+01 0.7868272D+01
EXPONENTS  0.1881289D+01 0.5442493D+00 0.7868272D+01 0.1881289D+01 0.5442493D+00
EXPONENTS  0.7868272D+01 0.1881289D+01 0.5442493D+00 0.7868272D+01 0.1881289D+01
EXPONENTS  0.5442493D+00 0.1687145D+00 0.1687145D+00 0.1687145D+00 0.1687145D+00
EXPONENTS  0.8000000D+00 0.8000000D+00 0.8000000D+00 0.8000000D+00 0.8000000D+00
EXPONENTS  0.8000000D+00 0.3047525D+04 0.4573695D+03 0.1039487D+03 0.2921016D+02
EXPONENTS  0.9286663D+01 0.3163927D+01 0.7868272D+01 0.1881289D+01 0.5442493D+00
EXPONENTS  0.7868272D+01 0.1881289D+01 0.5442493D+00 0.7868272D+01 0.1881289D+01
EXPONENTS  0.5442493D+00 0.7868272D+01 0.1881289D+01 0.5442493D+00 0.1687145D+00
EXPONENTS  0.1687145D+00 0.1687145D+00 0.1687145D+00 0.8000000D+00 0.8000000D+00
EXPONENTS  0.8000000D+00 0.8000000D+00 0.8000000D+00 0.8000000D+00 0.3047525D+04
EXPONENTS  0.4573695D+03 0.1039487D+03 0.2921016D+02 0.9286663D+01 0.3163927D+01
EXPONENTS  0.7868272D+01 0.1881289D+01 0.5442493D+00 0.7868272D+01 0.1881289D+01
EXPONENTS  0.5442493D+00 0.7868272D+01 0.1881289D+01 0.5442493D+00 0.7868272D+01
EXPONENTS  0.1881289D+01 0.5442493D+00 0.1687145D+00 0.1687145D+00 0.1687145D+00
EXPONENTS  0.1687145D+00 0.8000000D+00 0.8000000D+00 0.8000000D+00 0.8000000D+00
EXPONENTS  0.8000000D+00 0.8000000D+00 0.3047525D+04 0.4573695D+03 0.1039487D+03
EXPONENTS  0.2921016D+02 0.9286663D+01 0.3163927D+01 0.7868272D+01 0.1881289D+01
EXPONENTS  0.5442493D+00 0.7868272D+01 0.1881289D+01 0.5442493D+00 0.7868272D+01
EXPONENTS  0.1881289D+01 0.5442493D+00 0.7868272D+01 0.1881289D+01 0.5442493D+00
EXPONENTS  0.1687145D+00 0.1687145D+00 0.1687145D+00 0.1687145D+00 0.8000000D+00
EXPONENTS  0.8000000D+00 0.8000000D+00 0.8000000D+00 0.8000000D+00 0.8000000D+00
EXPONENTS  0.3047525D+04 0.4573695D+03 0.1039487D+03 0.2921016D+02 0.9286663D+01
EXPONENTS  0.3163927D+01 0.7868272D+01 0.1881289D+01 0.5442493D+00 0.7868272D+01
EXPONENTS  0.1881289D+01 0.5442493D+00 0.7868272D+01 0.1881289D+01 0.5442493D+00
EXPONENTS  0.7868272D+01 0.1881289D+01 0.5442493D+00 0.1687145D+00 0.1687145D+00
EXPONENTS  0.1687145D+00 0.1687145D+00 0.8000000D+00 0.8000000D+00 0.8000000D+00
EXPONENTS  0.8000000D+00 0.8000000D+00 0.8000000D+00 0.1873114D+02 0.2825394D+01
EXPONENTS  0.6401217D+00 0.1612778D+00 0.1873114D+02 0.2825394D+01 0.6401217D+00
EXPONENTS  0.1612778D+00 0.1873114D+02 0.2825394D+01 0.6401217D+00 0.1612778D+00
EXPONENTS  0.3047525D+04 0.4573695D+03 0.1039487D+03 0.2921016D+02 0.9286663D+01
EXPONENTS  0.3163927D+01 0.7868272D+01 0.1881289D+01 0.5442493D+00 0.7868272D+01
EXPONENTS  0.1881289D+01 0.5442493D+00 0.7868272D+01 0.1881289D+01 0.5442493D+00
EXPONENTS  0.7868272D+01 0.1881289D+01 0.5442493D+00 0.1687145D+00 0.1687145D+00
EXPONENTS  0.1687145D+00 0.1687145D+00 0.8000000D+00 0.8000000D+00 0.8000000D+00
EXPONENTS  0.8000000D+00 0.8000000D+00 0.8000000D+00 0.3047525D+04 0.4573695D+03
EXPONENTS  0.1039487D+03 0.2921016D+02 0.9286663D+01 0.3163927D+01 0.7868272D+01
EXPONENTS  0.1881289D+01 0.5442493D+00 0.7868272D+01 0.1881289D+01 0.5442493D+00
EXPONENTS  0.7868272D+01 0.1881289D+01 0.5442493D+00 0.7868272D+01 0.1881289D+01
EXPONENTS  0.5442493D+00 0.1687145D+00 0.1687145D+00 0.1687145D+00 0.1687145D+00
EXPONENTS  0.8000000D+00 0.8000000D+00 0.8000000D+00 0.8000000D+00 0.8000000D+00
EXPONENTS  0.8000000D+00 0.1873114D+02 0.2825394D+01 0.6401217D+00 0.1612778D+00
EXPONENTS  0.1873114D+02 0.2825394D+01 0.6401217D+00 0.1612778D+00 0.3047525D+04
EXPONENTS  0.4573695D+03 0.1039487D+03 0.2921016D+02 0.9286663D+01 0.3163927D+01
EXPONENTS  0.7868272D+01 0.1881289D+01 0.5442493D+00 0.7868272D+01 0.1881289D+01
EXPONENTS  0.5442493D+00 0.7868272D+01 0.1881289D+01 0.5442493D+00 0.7868272D+01
EXPONENTS  0.1881289D+01 0.5442493D+00 0.1687145D+00 0.1687145D+00 0.1687145D+00
EXPONENTS  0.1687145D+00 0.8000000D+00 0.8000000D+00 0.8000000D+00 0.8000000D+00
EXPONENTS  0.8000000D+00 0.8000000D+00 0.3047525D+04 0.4573695D+03 0.1039487D+03
EXPONENTS  0.2921016D+02 0.9286663D+01 0.3163927D+01 0.7868272D+01 0.1881289D+01
EXPONENTS  0.5442493D+00 0.7868272D+01 0.1881289D+01 0.5442493D+00 0.7868272D+01
EXPONENTS  0.1881289D+01 0.5442493D+00 0.7868272D+01 0.1881289D+01 0.5442493D+00
EXPONENTS  0.1687145D+00 0.1687145D+00 0.1687145D+00 0.1687145D+00 0.8000000D+00
EXPONENTS  0.8000000D+00 0.8000000D+00 0.8000000D+00 0.8000000D+00 0.8000000D+00
EXPONENTS  0.1873114D+02 0.2825394D+01 0.6401217D+00 0.1612778D+00 0.1873114D+02
EXPONENTS  0.2825394D+01 0.6401217D+00 0.1612778D+00 0.1873114D+02 0.2825394D+01
EXPONENTS  0.6401217D+00 0.1612778D+00
MO    1     MO 0.0        OCC NO =    2.0000000  ORB. ENERGY =  -10.193356
  0.49626021D-03  0.91550318D-03  0.14779060D-02  0.19237945D-02  0.16415773D-02
  0.56679720D-03  0.18612217D-04  0.85783537D-05 -0.24054599D-04  0.45927789D-04
  0.35214515D-04  0.17574511D-04  0.56948116D-05  0.43664203D-05  0.21791498D-05
  0.28611026D-09  0.21937120D-09  0.10948160D-09  0.89448578D-05 -0.13802923D-05
 -0.18626080D-04 -0.73634651D-10  0.45533080D-04  0.10668919D-04 -0.45659960D-04
  0.24475640D-04 -0.17688989D-10 -0.19650062D-09  0.12905879D-01  0.23808827D-01
  0.38434830D-01  0.50030728D-01  0.42691311D-01  0.14740284D-01 -0.35329771D-03
 -0.16283459D-03  0.45660520D-03  0.26141588D-03  0.20043711D-03  0.10003217D-03
 -0.20443425D-03 -0.15674721D-03 -0.78227845D-04 -0.91645628D-10 -0.70268055D-10
 -0.35068684D-10  0.51020460D-03 -0.19253946D-03  0.97972768D-04  0.12762727D-09
 -0.55134474D-03 -0.43684298D-03 -0.38288471D-03  0.15162226D-03  0.75325453D-10
 -0.26472643D-10  0.37594417D+00  0.69354359D+00  0.11195944D+01  0.14573792D+01
  0.12435843D+01  0.42937979D+00 -0.13937690D-01 -0.64238685D-02  0.18013198D-01
  0.36052204D-07  0.27642544D-07  0.13795567D-07 -0.26529597D-03 -0.20341212D-03
 -0.10151690D-03 -0.17840026D-09 -0.13678601D-09 -0.68265804D-10 -0.16393776D-02
 -0.27602501D-07  0.20408288D-03 -0.39455727D-10 -0.73499226D-02 -0.76087995D-02
 -0.75851869D-02 -0.47326541D-07 -0.15718798D-09 -0.29019746D-09  0.37606722D+00
  0.69377058D+00  0.11199608D+01  0.14578562D+01  0.12439914D+01  0.42952032D+00
 -0.13942357D-01 -0.64260197D-02  0.18019230D-01 -0.15566512D-07 -0.11935414D-07
 -0.59566080D-08  0.26516217D-03  0.20330954D-03  0.10146571D-03 -0.46362019D-09
 -0.35547455D-09 -0.17740672D-09 -0.16406831D-02  0.17453316D-07 -0.20381030D-03
  0.38318403D-09 -0.73521917D-02 -0.76110411D-02 -0.75875577D-02 -0.33053960D-07
  0.25613456D-09 -0.29886401D-09  0.12909109D-01  0.23814785D-01  0.38444447D-01
  0.50043248D-01  0.42701994D-01  0.14743972D-01 -0.35337905D-03 -0.16287208D-03
  0.45671031D-03  0.26149429D-03  0.20049723D-03  0.10006217D-03  0.20449102D-03
  0.15679074D-03  0.78249569D-04 -0.42698136D-10 -0.32738222D-10 -0.16338667D-10
  0.51048758D-03 -0.19254338D-03 -0.98111512D-04 -0.88585550D-10 -0.55154691D-03
 -0.43699852D-03 -0.38299951D-03 -0.15170187D-03  0.15786285D-09  0.42019713D-10
  0.49643204D-03  0.91582017D-03  0.14784177D-02  0.19244606D-02  0.16421457D-02
  0.56699345D-03  0.18587855D-04  0.85671252D-05 -0.24023113D-04  0.45927946D-04
  0.35214636D-04  0.17574571D-04 -0.56996337D-05 -0.43701176D-05 -0.21809949D-05
  0.33800405D-09  0.25916007D-09  0.12933904D-09  0.87174981D-05 -0.12822532D-05
  0.18671662D-04 -0.36824237D-10  0.45554540D-04  0.10677829D-04 -0.45642517D-04
 -0.24479676D-04 -0.80205132D-10  0.47718242D-09 -0.11823849D-04 -0.20055485D-04
 -0.22832461D-04  0.54344117D-05 -0.27534962D-05 -0.46704508D-05 -0.53171431D-05
  0.10298517D-04 -0.11823472D-04 -0.20054847D-04 -0.22831734D-04  0.54396894D-05
  0.12905273D-01  0.23807709D-01  0.38433023D-01  0.50028377D-01  0.42689305D-01
  0.14739591D-01 -0.35328768D-03 -0.16282997D-03  0.45659223D-03 -0.26139909D-03
 -0.20042424D-03 -0.10002574D-03 -0.20442398D-03 -0.15673934D-03 -0.78223918D-04
 -0.20931344D-09 -0.16048827D-09 -0.80094893D-10  0.51015047D-03  0.19252857D-03
  0.97955424D-04  0.19698792D-09 -0.55133282D-03 -0.43683319D-03 -0.38286928D-03
 -0.15163933D-03 -0.11200257D-09 -0.33269754D-09  0.12910636D-01  0.23817603D-01
  0.38448996D-01  0.50049169D-01  0.42707046D-01  0.14745717D-01 -0.35343274D-03
 -0.16289683D-03  0.45677971D-03 -0.26149827D-03 -0.20050029D-03 -0.10006370D-03
  0.20449836D-03  0.15679637D-03  0.78252379D-04 -0.53853794D-10 -0.41291673D-10
 -0.20607439D-10  0.51051300D-03  0.19254670D-03 -0.98121793D-04  0.38396113D-10
 -0.55158313D-03 -0.43703069D-03 -0.38303382D-03  0.15170308D-03 -0.53270297D-09
  0.75642825D-09 -0.11820046D-04 -0.20049035D-04 -0.22825117D-04  0.54715759D-05
 -0.27575926D-05 -0.46773990D-05 -0.53250534D-05  0.10270885D-04  0.49658827D-03
  0.91610840D-03  0.14788830D-02  0.19250663D-02  0.16426625D-02  0.56717190D-03
  0.18581587D-04  0.85642363D-05 -0.24015013D-04 -0.45927790D-04 -0.35214516D-04
 -0.17574512D-04 -0.57006197D-05 -0.43708736D-05 -0.21813723D-05  0.44811382D-10
  0.34358525D-10  0.17147312D-10  0.87019940D-05  0.12776235D-05  0.18676172D-04
  0.62228051D-10  0.45552571D-04  0.10671839D-04 -0.45644707D-04  0.24481157D-04
  0.24393403D-09  0.61251659D-10  0.49619847D-03  0.91538928D-03  0.14777221D-02
  0.19235551D-02  0.16413731D-02  0.56672668D-03  0.18617513D-04  0.85807947D-05
 -0.24061444D-04 -0.45927334D-04 -0.35214167D-04 -0.17574337D-04  0.56927038D-05
  0.43648042D-05  0.21783432D-05  0.32247351D-09  0.24725223D-09  0.12339619D-09
  0.89625067D-05  0.13872121D-05 -0.18620474D-04 -0.13331884D-09  0.45533925D-04
  0.10673599D-04 -0.45661764D-04 -0.24472792D-04  0.52364385D-10 -0.33495723D-09
 -0.11820294D-04 -0.20049456D-04 -0.22825597D-04  0.54745904D-05 -0.27578117D-05
 -0.46777707D-05 -0.53254766D-05  0.10269594D-04 -0.27532258D-05 -0.46699920D-05
 -0.53166209D-05  0.10300794D-04
MO    2     MO 0.0        OCC NO =    2.0000000  ORB. ENERGY =  -10.192922
  0.91527233D-03  0.16884987D-02  0.27257605D-02  0.35481303D-02  0.30276260D-02
  0.10453665D-02 -0.91723209D-04 -0.42275143D-04  0.11854391D-03  0.37175465D-05
  0.28503789D-05  0.14225388D-05  0.20204331D-04  0.15491399D-04  0.77312940D-05
  0.54125811D-11  0.41500239D-11  0.20711528D-11 -0.72789265D-03  0.30672370D-03
 -0.15174264D-03 -0.66924930D-09  0.60141354D-04  0.94930651D-05  0.49693537D-04
  0.17624419D-04  0.16200021D-09 -0.55654555D-09  0.13813780D-01  0.25483727D-01
  0.41138636D-01  0.53550281D-01  0.45694552D-01  0.15777231D-01 -0.37029185D-03
 -0.17066718D-03  0.47856858D-03  0.27613648D-03  0.21172394D-03  0.10566508D-03
 -0.19778569D-03 -0.15164952D-03 -0.75683740D-04 -0.62341465D-09 -0.47799481D-09
 -0.23855291D-09  0.97266228D-03 -0.39264115D-04  0.45674158D-03 -0.56271083D-10
 -0.70294941D-03 -0.55274072D-03 -0.43952051D-03  0.21560039D-03  0.14010856D-09
 -0.97103975D-09  0.37616404D+00  0.69394921D+00  0.11202492D+01  0.14582316D+01
  0.12443117D+01  0.42963091D+00 -0.14273471D-01 -0.65786300D-02  0.18447165D-01
  0.17721452D-07  0.13587686D-07  0.67812074D-08  0.41545169D-03  0.31854200D-03
  0.15897478D-03 -0.10515779D-09 -0.80628327D-10 -0.40239186D-10 -0.39829665D-02
  0.15357074D-07 -0.83313636D-03  0.27583535D-09 -0.69278764D-02 -0.68698025D-02
 -0.72576688D-02 -0.48937626D-07 -0.95807171D-10  0.25917230D-09 -0.37604106D+00
 -0.69372233D+00 -0.11198829D+01 -0.14577548D+01 -0.12439048D+01 -0.42949045D+00
  0.14268909D-01  0.65765273D-02 -0.18441269D-01 -0.83239953D-08 -0.63823117D-08
 -0.31852208D-08  0.41553422D-03  0.31860528D-03  0.15900637D-03  0.79284145D-09
  0.60790054D-09  0.30338497D-09  0.39824346D-02  0.43605821D-07 -0.83319909D-03
 -0.10972434D-08  0.69254760D-02  0.68673085D-02  0.72551856D-02  0.27876095D-07
  0.23357507D-09  0.16437985D-09 -0.13808217D-01 -0.25473464D-01 -0.41122070D-01
 -0.53528716D-01 -0.45676150D-01 -0.15770877D-01  0.37013558D-03  0.17059515D-03
 -0.47836661D-03 -0.27602902D-03 -0.21164154D-03 -0.10562396D-03 -0.19770403D-03
 -0.15158691D-03 -0.75652492D-04  0.35882250D-09  0.27512233D-09  0.13730533D-09
 -0.97253025D-03  0.39210714D-04  0.45671119D-03  0.44955479D-09  0.70273421D-03
  0.55257343D-03  0.43936577D-03  0.21555518D-03  0.89800672D-11 -0.16842198D-08
 -0.91491067D-03 -0.16878315D-02 -0.27246834D-02 -0.35467283D-02 -0.30264297D-02
 -0.10449534D-02  0.91727177D-04  0.42276972D-04 -0.11854904D-03 -0.37000337D-05
 -0.28369512D-05 -0.14158375D-05  0.20207195D-04  0.15493596D-04  0.77323900D-05
 -0.25447321D-09 -0.19511392D-09 -0.97375520D-10  0.72789920D-03 -0.30672881D-03
 -0.15174532D-03  0.91276716D-09 -0.60124261D-04 -0.94950553D-05 -0.49715816D-04
  0.17616694D-04 -0.54155926D-09 -0.72547298D-09  0.10115988D-04  0.17158631D-04
  0.19534495D-04  0.10823039D-03 -0.12648962D-04 -0.21455034D-04 -0.24425798D-04
 -0.85604176D-04  0.10117183D-04  0.17160657D-04  0.19536802D-04  0.10823461D-03
  0.13813220D-01  0.25482694D-01  0.41136969D-01  0.53548110D-01  0.45692699D-01
  0.15776591D-01 -0.37028474D-03 -0.17066390D-03  0.47855939D-03 -0.27610754D-03
 -0.21170175D-03 -0.10565401D-03 -0.19776656D-03 -0.15163485D-03 -0.75676420D-04
  0.58507856D-09  0.44860113D-09  0.22388340D-09  0.97267015D-03  0.39262127D-04
  0.45673534D-03 -0.93815741D-09 -0.70293084D-03 -0.55273037D-03 -0.43950565D-03
 -0.21561261D-03  0.82130493D-10 -0.44636019D-09 -0.13809932D-01 -0.25476627D-01
 -0.41127176D-01 -0.53535363D-01 -0.45681822D-01 -0.15772835D-01  0.37019332D-03
  0.17062176D-03 -0.47844123D-03  0.27604231D-03  0.21165173D-03  0.10562905D-03
 -0.19771532D-03 -0.15159557D-03 -0.75656813D-04  0.22104814D-09  0.16948570D-09
  0.84585241D-10 -0.97247693D-03 -0.39188830D-04  0.45670549D-03  0.51382887D-09
  0.70277689D-03  0.55260233D-03  0.43940407D-03 -0.21555726D-03  0.93233199D-09
  0.17885489D-09 -0.10120239D-04 -0.17165840D-04 -0.19542702D-04 -0.10822950D-03
  0.12648833D-04  0.21454815D-04  0.24425549D-04  0.85611501D-04 -0.91515774D-03
 -0.16882873D-02 -0.27254192D-02 -0.35476861D-02 -0.30272469D-02 -0.10452356D-02
  0.91729656D-04  0.42278114D-04 -0.11855225D-03  0.37008605D-05  0.28375851D-05
  0.14161538D-05  0.20202131D-04  0.15489713D-04  0.77304523D-05 -0.11979995D-09
 -0.91855001D-10 -0.45842083D-10  0.72789243D-03  0.30672668D-03 -0.15172418D-03
  0.43267536D-09 -0.60125576D-04 -0.94899338D-05 -0.49706254D-04 -0.17615546D-04
 -0.80725685D-09  0.15745840D-09  0.91513401D-03  0.16882436D-02  0.27253486D-02
  0.35475940D-02  0.30271684D-02  0.10452085D-02 -0.91722296D-04 -0.42274722D-04
  0.11854273D-03 -0.37146523D-05 -0.28481598D-05 -0.14214313D-05  0.20210772D-04
  0.15496338D-04  0.77337588D-05  0.19439400D-09  0.14904899D-09  0.74385893D-10
 -0.72788917D-03 -0.30672900D-03 -0.15173934D-03 -0.56564060D-09  0.60137055D-04
  0.94979361D-05  0.49699074D-04 -0.17624651D-04 -0.36573576D-09 -0.86458515D-09
 -0.10120723D-04 -0.17166662D-04 -0.19543638D-04 -0.10823346D-03  0.12648102D-04
  0.21453574D-04  0.24424136D-04  0.85605844D-04 -0.12649479D-04 -0.21455911D-04
 -0.24426796D-04 -0.85606337D-04
MO    3     MO 0.0        OCC NO =    2.0000000  ORB. ENERGY =  -10.187342
 -0.24282092D+00 -0.44795719D+00 -0.72314180D+00 -0.94131575D+00 -0.80322644D+00
 -0.27733479D+00  0.89431024D-02  0.41218677D-02 -0.11558147D-01  0.35845742D-05
  0.27484242D-05  0.13716563D-05  0.95214070D-04  0.73004110D-04  0.36434167D-04
 -0.26580660D-09 -0.20380364D-09 -0.10171230D-09  0.79399694D-03 -0.49897103D-04
 -0.66544474D-04  0.99915156D-10  0.48723298D-02  0.49686364D-02  0.49809640D-02
  0.19817632D-04  0.11306793D-09 -0.20095747D-09 -0.97635014D-01 -0.18011754D+00
 -0.29076555D+00 -0.37849035D+00 -0.32296650D+00 -0.11151257D+00  0.35555694D-02
  0.16387587D-02 -0.45952504D-02  0.20096007D-03  0.15408344D-03  0.76898435D-04
  0.11612008D-03  0.89033516D-04  0.44433964D-04 -0.12419218D-10 -0.95222685D-11
 -0.47522794D-11  0.18885474D-03 -0.17189380D-03 -0.30473495D-04  0.13747655D-09
  0.20597662D-02  0.20075454D-02  0.20367549D-02 -0.38748950D-04 -0.11948401D-09
 -0.10006657D-09 -0.12245195D-03 -0.22589995D-03 -0.36467256D-03 -0.47469531D-03
 -0.40505837D-03 -0.13985692D-03  0.61743786D-05  0.28457654D-05 -0.79798234D-05
  0.25640126D-03  0.19659223D-03  0.98113299D-04  0.33719511D-07  0.25853983D-07
  0.12902949D-07  0.11530289D-09  0.88406944D-10  0.44121261D-10  0.23604494D-05
 -0.18416071D-03  0.31263442D-06 -0.77401837D-10  0.94076322D-06  0.11791356D-05
  0.75971117D-06 -0.55204013D-05  0.47775667D-09 -0.18217061D-09 -0.14041177D-03
 -0.25903230D-03 -0.41815846D-03 -0.54431806D-03 -0.46446759D-03 -0.16036950D-03
  0.68959524D-05  0.31783382D-05 -0.89123919D-05  0.25642943D-03  0.19661382D-03
  0.98124078D-04 -0.14228180D-06 -0.10909266D-06 -0.54444883D-07 -0.28940225D-09
 -0.22189529D-09 -0.11074130D-09  0.22030016D-05 -0.18404492D-03 -0.69078612D-06
  0.29223023D-09  0.10633770D-05  0.13267705D-05  0.10878012D-05  0.55531268D-05
  0.49590614D-09  0.10585851D-09 -0.97472069D-01 -0.17981693D+00 -0.29028029D+00
 -0.37785868D+00 -0.32242750D+00 -0.11132647D+00  0.35497130D-02  0.16360595D-02
 -0.45876816D-02  0.20071049D-03  0.15389207D-03  0.76802928D-04 -0.11602674D-03
 -0.88961943D-04 -0.44398244D-04  0.42029119D-09  0.32225262D-09  0.16082664D-09
  0.18937627D-03 -0.17194539D-03  0.30218395D-04 -0.19416047D-09  0.20563031D-02
  0.20040533D-02  0.20332873D-02  0.38903542D-04  0.34824040D-10  0.62605658D-09
 -0.24236301D+00 -0.44711243D+00 -0.72177810D+00 -0.93954062D+00 -0.80171172D+00
 -0.27681179D+00  0.89258863D-02  0.41139328D-02 -0.11535897D-01  0.34006099D-05
  0.26073720D-05  0.13012614D-05 -0.95805123D-04 -0.73457292D-04 -0.36660337D-04
 -0.67114080D-09 -0.51458820D-09 -0.25681558D-09  0.79060357D-03 -0.49446336D-04
  0.67273192D-04  0.39139070D-09  0.48635889D-02  0.49601293D-02  0.49719305D-02
 -0.20046444D-04  0.28236312D-09  0.27015012D-09 -0.14414499D-04 -0.24449718D-04
 -0.27835140D-04  0.70316556D-04  0.41333890D-04  0.70110100D-04  0.79817871D-04
 -0.15169416D-03  0.13653785D-04  0.23159403D-04  0.26366162D-04 -0.67967476D-04
  0.10088790D+00  0.18611847D+00  0.30045291D+00  0.39110042D+00  0.33372670D+00
  0.11522781D+00 -0.36725058D-02 -0.16926545D-02  0.47463800D-02  0.20788118D-03
  0.15939011D-03  0.79546833D-04 -0.11891106D-03 -0.91173461D-04 -0.45501947D-04
  0.77297163D-09  0.59266562D-09  0.29578168D-09 -0.19145061D-03 -0.17398325D-03
  0.31828179D-04 -0.30151264D-09 -0.21262847D-02 -0.20738198D-02 -0.21059741D-02
 -0.38488737D-04 -0.25805040D-09 -0.43274919D-09  0.10111941D+00  0.18654556D+00
  0.30114237D+00  0.39199789D+00  0.33449251D+00  0.11549223D+00 -0.36808550D-02
 -0.16965027D-02  0.47571707D-02  0.20824314D-03  0.15966763D-03  0.79685340D-04
  0.11902083D-03  0.91257627D-04  0.45543952D-04  0.99639396D-09  0.76397169D-09
  0.38127542D-09 -0.19068122D-03 -0.17398439D-03 -0.32279769D-04 -0.73196686D-09
 -0.21311782D-02 -0.20787154D-02 -0.21108720D-02  0.38314042D-04  0.50221072D-10
  0.11085422D-08  0.13612753D-04  0.23089805D-04  0.26286927D-04 -0.67857285D-04
  0.41246162D-04  0.69961297D-04  0.79648464D-04 -0.15158325D-03  0.25149239D+00
  0.46395435D+00  0.74896617D+00  0.97493141D+00  0.83191074D+00  0.28723879D+00
 -0.92620556D-02 -0.42688730D-02  0.11970365D-01  0.35013902D-05  0.26846439D-05
  0.13398255D-05  0.98152651D-04  0.75257227D-04  0.37558631D-04 -0.13963180D-08
 -0.10706081D-08 -0.53430847D-09 -0.82008160D-03 -0.51134636D-04 -0.67951355D-04
  0.49646770D-09 -0.50460604D-02 -0.51460739D-02 -0.51594412D-02 -0.20639453D-04
  0.16435101D-08 -0.84850492D-09  0.25091673D+00  0.46289237D+00  0.74725182D+00
  0.97269984D+00  0.83000653D+00  0.28658131D+00 -0.92404004D-02 -0.42588921D-02
  0.11942378D-01  0.33060933D-05  0.25349027D-05  0.12650941D-05 -0.98916932D-04
 -0.75843229D-04 -0.37851087D-04  0.45079262D-09  0.34563919D-09  0.17249818D-09
 -0.81565565D-03 -0.50485451D-04  0.68869320D-04 -0.49145120D-09 -0.50350468D-02
 -0.51353532D-02 -0.51480885D-02  0.20917521D-04  0.30131102D-10 -0.67618150D-09
 -0.14459410D-04 -0.24525896D-04 -0.27921866D-04  0.70517922D-04 -0.42978642D-04
 -0.72899911D-04 -0.82993972D-04  0.15717698D-03 -0.42866868D-04 -0.72710322D-04
 -0.82778132D-04  0.15705754D-03
MO    4     MO 0.0        OCC NO =    2.0000000  ORB. ENERGY =  -10.187340
  0.25212933D+00  0.46512938D+00  0.75086304D+00  0.97740058D+00  0.83401768D+00
  0.28796626D+00 -0.92735004D-02 -0.42741478D-02  0.11985157D-01  0.94920364D-06
  0.72778915D-06  0.36321779D-06 -0.88698389D-04 -0.68008299D-04 -0.33940907D-04
  0.20696065D-09  0.15868430D-09  0.79194587D-10 -0.75452896D-03  0.35505693D-04
  0.44091287D-04 -0.92803887D-10 -0.50515382D-02 -0.51603723D-02 -0.51894589D-02
 -0.23944728D-04 -0.18716249D-09  0.12635874D-09  0.99228376D-01  0.18305698D+00
  0.29551072D+00  0.38466715D+00  0.32823718D+00  0.11333241D+00 -0.35659739D-02
 -0.16435541D-02  0.46086973D-02 -0.21142164D-03 -0.16210470D-03 -0.80901607D-04
 -0.86319892D-04 -0.66184618D-04 -0.33030763D-04  0.27452184D-10  0.21048593D-10
  0.10504723D-10 -0.48267444D-04  0.62325748D-04  0.51612564D-04  0.33799697D-10
 -0.20371407D-02 -0.20288482D-02 -0.21123348D-02 -0.12033221D-04 -0.14588397D-10
  0.40847213D-09 -0.74255333D-02 -0.13698659D-01 -0.22113883D-01 -0.28785705D-01
 -0.24562894D-01 -0.84809771D-02  0.36957742D-03  0.17033790D-03 -0.47764524D-03
 -0.44690467D-05 -0.34265816D-05 -0.17101044D-05  0.39425661D-05  0.30229096D-05
  0.15086438D-05  0.56896989D-09  0.43625002D-09  0.21771934D-09  0.12453057D-03
  0.24235702D-05  0.29576814D-04 -0.21905499D-09  0.57602417D-04  0.71389634D-04
  0.51785827D-04  0.17640821D-06 -0.15093039D-09  0.38508120D-10 -0.74275506D-02
 -0.13702380D-01 -0.22119891D-01 -0.28793525D-01 -0.24569567D-01 -0.84832811D-02
  0.36966951D-03  0.17038034D-03 -0.47776425D-03 -0.43867932D-05 -0.33635148D-05
 -0.16786296D-05 -0.39575739D-05 -0.30344167D-05 -0.15143866D-05  0.42567697D-09
  0.32638210D-09  0.16288754D-09  0.12463133D-03  0.38952163D-05 -0.29633884D-04
 -0.13184162D-09  0.57603619D-04  0.71395672D-04  0.51811124D-04  0.28526209D-07
 -0.66666072D-09  0.79012941D-10  0.99048050D-01  0.18272431D+00  0.29497369D+00
  0.38396810D+00  0.32764068D+00  0.11312645D+00 -0.35595522D-02 -0.16405944D-02
  0.46003979D-02 -0.21093213D-03 -0.16172938D-03 -0.80714295D-04  0.86199625D-04
  0.66092405D-04  0.32984742D-04 -0.41521905D-09 -0.31836363D-09 -0.15888576D-09
 -0.50300758D-04  0.62116204D-04 -0.50517286D-04  0.14328339D-09 -0.20332136D-02
 -0.20250751D-02 -0.21084628D-02  0.11901165D-04  0.25340321D-09 -0.71486372D-09
  0.25164446D+00  0.46423489D+00  0.74941905D+00  0.97552093D+00  0.83241378D+00
  0.28741247D+00 -0.92551588D-02 -0.42656942D-02  0.11961452D-01  0.10597667D-05
  0.81256187D-06  0.40552532D-06  0.89356291D-04  0.68512737D-04  0.34192657D-04
  0.52229095D-09  0.40045958D-09  0.19985739D-09 -0.74973676D-03  0.34467157D-04
 -0.44918796D-04 -0.23239142D-09 -0.50422367D-02 -0.51513668D-02 -0.51799743D-02
  0.24116719D-04 -0.49175520D-09 -0.17680766D-09 -0.22564384D-04 -0.38273466D-04
 -0.43572988D-04  0.69762990D-04 -0.47733203D-04 -0.80964546D-04 -0.92175274D-04
  0.15985236D-03 -0.23042868D-04 -0.39085065D-04 -0.44496965D-04  0.72546781D-04
  0.95611997D-01  0.17638547D+00  0.28474083D+00  0.37064796D+00  0.31627457D+00
  0.10920201D+00 -0.34345042D-02 -0.15829598D-02  0.44387846D-02  0.20375871D-03
  0.15622925D-03  0.77969347D-04 -0.82070579D-04 -0.62926515D-04 -0.31404741D-04
  0.54712958D-09  0.41950426D-09  0.20936203D-09 -0.43999512D-04 -0.56088620D-04
  0.49361187D-04 -0.90597840D-10 -0.19606771D-02 -0.19543826D-02 -0.20367156D-02
  0.13209591D-04 -0.20440329D-09 -0.42161749D-09  0.95844894D-01  0.17681512D+00
  0.28543442D+00  0.37155080D+00  0.31704497D+00  0.10946801D+00 -0.34428533D-02
 -0.15868080D-02  0.44495752D-02  0.20429866D-03  0.15664326D-03  0.78175964D-04
  0.82187360D-04  0.63016054D-04  0.31449428D-04  0.60619901D-09  0.46479495D-09
  0.23196526D-09 -0.42034583D-04 -0.56284377D-04 -0.50458684D-04 -0.28049662D-09
 -0.19656644D-02 -0.19592321D-02 -0.20416704D-02 -0.13357583D-04  0.39694667D-09
  0.82349420D-09 -0.23050995D-04 -0.39098851D-04 -0.44512660D-04  0.72166428D-04
 -0.47628320D-04 -0.80786645D-04 -0.91972740D-04  0.15986345D-03  0.24353872D+00
  0.44928138D+00  0.72527945D+00  0.94409834D+00  0.80560082D+00  0.27815460D+00
 -0.89571258D-02 -0.41283311D-02  0.11576271D-01 -0.11043046D-05 -0.84671071D-06
 -0.42256798D-06  0.85232641D-04  0.65350983D-04  0.32614721D-04 -0.13741278D-08
 -0.10535941D-08 -0.52581728D-09 -0.72652982D-03 -0.33727907D-04 -0.41657627D-04
  0.40723658D-09 -0.48791622D-02 -0.49845469D-02 -0.50132184D-02 -0.23229404D-04
  0.15780729D-08 -0.93323285D-09  0.24297311D+00  0.44823795D+00  0.72359503D+00
  0.94190573D+00  0.80372987D+00  0.27750861D+00 -0.89357605D-02 -0.41184839D-02
  0.11548659D-01 -0.12301058D-05 -0.94316712D-06 -0.47070649D-06 -0.86010605D-04
 -0.65947476D-04 -0.32912413D-04  0.29603763D-09  0.22698288D-09  0.11328036D-09
 -0.72123702D-03 -0.32649152D-04  0.42605951D-04 -0.37700827D-09 -0.48683050D-02
 -0.49740132D-02 -0.50021280D-02  0.23443325D-04  0.70324121D-10 -0.57558662D-09
 -0.22568627D-04 -0.38280663D-04 -0.43581182D-04  0.70166083D-04 -0.46268237D-04
 -0.78479687D-04 -0.89346349D-04  0.15447539D-03 -0.46148875D-04 -0.78277227D-04
 -0.89115856D-04  0.15445892D-03
MO    5     MO 0.0        OCC NO =    2.0000000  ORB. ENERGY =  -10.186972
 -0.21067833D+00 -0.38866037D+00 -0.62741835D+00 -0.81671227D+00 -0.69690206D+00
 -0.24062353D+00  0.79230157D-02  0.36517107D-02 -0.10239778D-01 -0.10641251D-04
 -0.81590360D-05 -0.40719308D-05 -0.31452263D-03 -0.24115600D-03 -0.12035375D-03
 -0.40990489D-09 -0.31428907D-09 -0.15685227D-09  0.16901503D-02 -0.29376419D-03