 Generated by Multiwfn
GAUSSIAN             95 MOL ORBITALS    432 PRIMITIVES       24 NUCLEI
  C    1    (CENTRE  1)   6.70429972 -0.55852345  0.00009177  CHARGE =  6.0
  C    2    (CENTRE  2)   5.34284790  1.65348911  0.00027233  CHARGE =  6.0
  C    3    (CENTRE  3)   2.67903286  1.63027556  0.00015157  CHARGE =  6.0
  C    4    (CENTRE  4)   1.37305537 -0.71556383 -0.00003581  CHARGE =  6.0
  C    5    (CENTRE  5)   2.82490912 -2.94942568 -0.00032312  CHARGE =  6.0
  C    6    (CENTRE  6)   5.42590594 -2.87952126 -0.00026369  CHARGE =  6.0
  C    7    (CENTRE  7)   1.27852267  3.94311689  0.00010573  CHARGE =  6.0
  C    8    (CENTRE  8)  -1.37305806 -0.71555861  0.00001064  CHARGE =  6.0
  C    9    (CENTRE  9)  -2.67903027  1.63027437 -0.00016189  CHARGE =  6.0
  C   10    (CENTRE 10)  -1.27852332  3.94311631 -0.00014426  CHARGE =  6.0
  C   11    (CENTRE 11)  -5.34285167  1.65348886 -0.00022764  CHARGE =  6.0
  H   12    (CENTRE 12)  -6.30625805  3.45871137 -0.00040716  CHARGE =  1.0
  C   13    (CENTRE 13)  -6.70429828 -0.55852056 -0.00004199  CHARGE =  6.0
  C   14    (CENTRE 14)  -5.42590167 -2.87952517  0.00026751  CHARGE =  6.0
  C   15    (CENTRE 15)  -2.82491172 -2.94942884  0.00029449  CHARGE =  6.0
  H   16    (CENTRE 16)   2.31769426  5.70559384  0.00023572  CHARGE =  1.0
  H   17    (CENTRE 17)   8.74791230 -0.51421808  0.00019086  CHARGE =  1.0
  H   18    (CENTRE 18)   6.30625655  3.45871077  0.00047842  CHARGE =  1.0
  H   19    (CENTRE 19)   1.89586667 -4.76640256 -0.00070576  CHARGE =  1.0
  H   20    (CENTRE 20)   6.48739916 -4.62676822 -0.00053925  CHARGE =  1.0
  H   21    (CENTRE 21)  -2.31769148  5.70559522 -0.00030544  CHARGE =  1.0
  H   22    (CENTRE 22)  -8.74791129 -0.51422623 -0.00008341  CHARGE =  1.0
  H   23    (CENTRE 23)  -6.48740988 -4.62676274  0.00052680  CHARGE =  1.0
  H   24    (CENTRE 24)  -1.89584992 -4.76639562  0.00063523  CHARGE =  1.0
CENTRE ASSIGNMENTS    1  1  1  1  1  1  1  1  1  1  1  1  1  1  1  1  1  1  1  1
CENTRE ASSIGNMENTS    1  1  1  1  1  1  1  1  2  2  2  2  2  2  2  2  2  2  2  2
CENTRE ASSIGNMENTS    2  2  2  2  2  2  2  2  2  2  2  2  2  2  2  2  3  3  3  3
CENTRE ASSIGNMENTS    3  3  3  3  3  3  3  3  3  3  3  3  3  3  3  3  3  3  3  3
CENTRE ASSIGNMENTS    3  3  3  3  4  4  4  4  4  4  4  4  4  4  4  4  4  4  4  4
CENTRE ASSIGNMENTS    4  4  4  4  4  4  4  4  4  4  4  4  5  5  5  5  5  5  5  5
CENTRE ASSIGNMENTS    5  5  5  5  5  5  5  5  5  5  5  5  5  5  5  5  5  5  5  5
CENTRE ASSIGNMENTS    6  6  6  6  6  6  6  6  6  6  6  6  6  6  6  6  6  6  6  6
CENTRE ASSIGNMENTS    6  6  6  6  6  6  6  6  7  7  7  7  7  7  7  7  7  7  7  7
CENTRE ASSIGNMENTS    7  7  7  7  7  7  7  7  7  7  7  7  7  7  7  7  8  8  8  8
CENTRE ASSIGNMENTS    8  8  8  8  8  8  8  8  8  8  8  8  8  8  8  8  8  8  8  8
CENTRE ASSIGNMENTS    8  8  8  8  9  9  9  9  9  9  9  9  9  9  9  9  9  9  9  9
CENTRE ASSIGNMENTS    9  9  9  9  9  9  9  9  9  9  9  9 10 10 10 10 10 10 10 10
CENTRE ASSIGNMENTS   10 10 10 10 10 10 10 10 10 10 10 10 10 10 10 10 10 10 10 10
CENTRE ASSIGNMENTS   11 11 11 11 11 11 11 11 11 11 11 11 11 11 11 11 11 11 11 11
CENTRE ASSIGNMENTS   11 11 11 11 11 11 11 11 12 12 12 12 13 13 13 13 13 13 13 13
CENTRE ASSIGNMENTS   13 13 13 13 13 13 13 13 13 13 13 13 13 13 13 13 13 13 13 13
CENTRE ASSIGNMENTS   14 14 14 14 14 14 14 14 14 14 14 14 14 14 14 14 14 14 14 14
CENTRE ASSIGNMENTS   14 14 14 14 14 14 14 14 15 15 15 15 15 15 15 15 15 15 15 15
CENTRE ASSIGNMENTS   15 15 15 15 15 15 15 15 15 15 15 15 15 15 15 15 16 16 16 16
CENTRE ASSIGNMENTS   17 17 17 17 18 18 18 18 19 19 19 19 20 20 20 20 21 21 21 21
CENTRE ASSIGNMENTS   22 22 22 22 23 23 23 23 24 24 24 24
TYPE ASSIGNMENTS      1  1  1  1  1  1  1  1  1  2  2  2  3  3  3  4  4  4  1  2
TYPE ASSIGNMENTS      3  4  5  6  7  8  9 10  1  1  1  1  1  1  1  1  1  2  2  2
TYPE ASSIGNMENTS      3  3  3  4  4  4  1  2  3  4  5  6  7  8  9 10  1  1  1  1
TYPE ASSIGNMENTS      1  1  1  1  1  2  2  2  3  3  3  4  4  4  1  2  3  4  5  6
TYPE ASSIGNMENTS      7  8  9 10  1  1  1  1  1  1  1  1  1  2  2  2  3  3  3  4
TYPE ASSIGNMENTS      4  4  1  2  3  4  5  6  7  8  9 10  1  1  1  1  1  1  1  1
TYPE ASSIGNMENTS      1  2  2  2  3  3  3  4  4  4  1  2  3  4  5  6  7  8  9 10
TYPE ASSIGNMENTS      1  1  1  1  1  1  1  1  1  2  2  2  3  3  3  4  4  4  1  2
TYPE ASSIGNMENTS      3  4  5  6  7  8  9 10  1  1  1  1  1  1  1  1  1  2  2  2
TYPE ASSIGNMENTS      3  3  3  4  4  4  1  2  3  4  5  6  7  8  9 10  1  1  1  1
TYPE ASSIGNMENTS      1  1  1  1  1  2  2  2  3  3  3  4  4  4  1  2  3  4  5  6
TYPE ASSIGNMENTS      7  8  9 10  1  1  1  1  1  1  1  1  1  2  2  2  3  3  3  4
TYPE ASSIGNMENTS      4  4  1  2  3  4  5  6  7  8  9 10  1  1  1  1  1  1  1  1
TYPE ASSIGNMENTS      1  2  2  2  3  3  3  4  4  4  1  2  3  4  5  6  7  8  9 10
TYPE ASSIGNMENTS      1  1  1  1  1  1  1  1  1  2  2  2  3  3  3  4  4  4  1  2
TYPE ASSIGNMENTS      3  4  5  6  7  8  9 10  1  1  1  1  1  1  1  1  1  1  1  1
TYPE ASSIGNMENTS      1  2  2  2  3  3  3  4  4  4  1  2  3  4  5  6  7  8  9 10
TYPE ASSIGNMENTS      1  1  1  1  1  1  1  1  1  2  2  2  3  3  3  4  4  4  1  2
TYPE ASSIGNMENTS      3  4  5  6  7  8  9 10  1  1  1  1  1  1  1  1  1  2  2  2
TYPE ASSIGNMENTS      3  3  3  4  4  4  1  2  3  4  5  6  7  8  9 10  1  1  1  1
TYPE ASSIGNMENTS      1  1  1  1  1  1  1  1  1  1  1  1  1  1  1  1  1  1  1  1
TYPE ASSIGNMENTS      1  1  1  1  1  1  1  1  1  1  1  1
EXPONENTS  0.3047525D+04 0.4573695D+03 0.1039487D+03 0.2921016D+02 0.9286663D+01
EXPONENTS  0.3163927D+01 0.7868272D+01 0.1881289D+01 0.5442493D+00 0.7868272D+01
EXPONENTS  0.1881289D+01 0.5442493D+00 0.7868272D+01 0.1881289D+01 0.5442493D+00
EXPONENTS  0.7868272D+01 0.1881289D+01 0.5442493D+00 0.1687145D+00 0.1687145D+00
EXPONENTS  0.1687145D+00 0.1687145D+00 0.8000000D+00 0.8000000D+00 0.8000000D+00
EXPONENTS  0.8000000D+00 0.8000000D+00 0.8000000D+00 0.3047525D+04 0.4573695D+03
EXPONENTS  0.1039487D+03 0.2921016D+02 0.9286663D+01 0.3163927D+01 0.7868272D+01
EXPONENTS  0.1881289D+01 0.5442493D+00 0.7868272D+01 0.1881289D+01 0.5442493D+00
EXPONENTS  0.7868272D+01 0.1881289D+01 0.5442493D+00 0.7868272D+01 0.1881289D+01
EXPONENTS  0.5442493D+00 0.1687145D+00 0.1687145D+00 0.1687145D+00 0.1687145D+00
EXPONENTS  0.8000000D+00 0.8000000D+00 0.8000000D+00 0.8000000D+00 0.8000000D+00
EXPONENTS  0.8000000D+00 0.3047525D+04 0.4573695D+03 0.1039487D+03 0.2921016D+02
EXPONENTS  0.9286663D+01 0.3163927D+01 0.7868272D+01 0.1881289D+01 0.5442493D+00
EXPONENTS  0.7868272D+01 0.1881289D+01 0.5442493D+00 0.7868272D+01 0.1881289D+01
EXPONENTS  0.5442493D+00 0.7868272D+01 0.1881289D+01 0.5442493D+00 0.1687145D+00
EXPONENTS  0.1687145D+00 0.1687145D+00 0.1687145D+00 0.8000000D+00 0.8000000D+00
EXPONENTS  0.8000000D+00 0.8000000D+00 0.8000000D+00 0.8000000D+00 0.3047525D+04
EXPONENTS  0.4573695D+03 0.1039487D+03 0.2921016D+02 0.9286663D+01 0.3163927D+01
EXPONENTS  0.7868272D+01 0.1881289D+01 0.5442493D+00 0.7868272D+01 0.1881289D+01
EXPONENTS  0.5442493D+00 0.7868272D+01 0.1881289D+01 0.5442493D+00 0.7868272D+01
EXPONENTS  0.1881289D+01 0.5442493D+00 0.1687145D+00 0.1687145D+00 0.1687145D+00
EXPONENTS  0.1687145D+00 0.8000000D+00 0.8000000D+00 0.8000000D+00 0.8000000D+00
EXPONENTS  0.8000000D+00 0.8000000D+00 0.3047525D+04 0.4573695D+03 0.1039487D+03
EXPONENTS  0.2921016D+02 0.9286663D+01 0.3163927D+01 0.7868272D+01 0.1881289D+01
EXPONENTS  0.5442493D+00 0.7868272D+01 0.1881289D+01 0.5442493D+00 0.7868272D+01
EXPONENTS  0.1881289D+01 0.5442493D+00 0.7868272D+01 0.1881289D+01 0.5442493D+00
EXPONENTS  0.1687145D+00 0.1687145D+00 0.1687145D+00 0.1687145D+00 0.8000000D+00
EXPONENTS  0.8000000D+00 0.8000000D+00 0.8000000D+00 0.8000000D+00 0.8000000D+00
EXPONENTS  0.3047525D+04 0.4573695D+03 0.1039487D+03 0.2921016D+02 0.9286663D+01
EXPONENTS  0.3163927D+01 0.7868272D+01 0.1881289D+01 0.5442493D+00 0.7868272D+01
EXPONENTS  0.1881289D+01 0.5442493D+00 0.7868272D+01 0.1881289D+01 0.5442493D+00
EXPONENTS  0.7868272D+01 0.1881289D+01 0.5442493D+00 0.1687145D+00 0.1687145D+00
EXPONENTS  0.1687145D+00 0.1687145D+00 0.8000000D+00 0.8000000D+00 0.8000000D+00
EXPONENTS  0.8000000D+00 0.8000000D+00 0.8000000D+00 0.3047525D+04 0.4573695D+03
EXPONENTS  0.1039487D+03 0.2921016D+02 0.9286663D+01 0.3163927D+01 0.7868272D+01
EXPONENTS  0.1881289D+01 0.5442493D+00 0.7868272D+01 0.1881289D+01 0.5442493D+00
EXPONENTS  0.7868272D+01 0.1881289D+01 0.5442493D+00 0.7868272D+01 0.1881289D+01
EXPONENTS  0.5442493D+00 0.1687145D+00 0.1687145D+00 0.1687145D+00 0.1687145D+00
EXPONENTS  0.8000000D+00 0.8000000D+00 0.8000000D+00 0.8000000D+00 0.8000000D+00
EXPONENTS  0.8000000D+00 0.3047525D+04 0.4573695D+03 0.1039487D+03 0.2921016D+02
EXPONENTS  0.9286663D+01 0.3163927D+01 0.7868272D+01 0.1881289D+01 0.5442493D+00
EXPONENTS  0.7868272D+01 0.1881289D+01 0.5442493D+00 0.7868272D+01 0.1881289D+01
EXPONENTS  0.5442493D+00 0.7868272D+01 0.1881289D+01 0.5442493D+00 0.1687145D+00
EXPONENTS  0.1687145D+00 0.1687145D+00 0.1687145D+00 0.8000000D+00 0.8000000D+00
EXPONENTS  0.8000000D+00 0.8000000D+00 0.8000000D+00 0.8000000D+00 0.3047525D+04
EXPONENTS  0.4573695D+03 0.1039487D+03 0.2921016D+02 0.9286663D+01 0.3163927D+01
EXPONENTS  0.7868272D+01 0.1881289D+01 0.5442493D+00 0.7868272D+01 0.1881289D+01
EXPONENTS  0.5442493D+00 0.7868272D+01 0.1881289D+01 0.5442493D+00 0.7868272D+01
EXPONENTS  0.1881289D+01 0.5442493D+00 0.1687145D+00 0.1687145D+00 0.1687145D+00
EXPONENTS  0.1687145D+00 0.8000000D+00 0.8000000D+00 0.8000000D+00 0.8000000D+00
EXPONENTS  0.8000000D+00 0.8000000D+00 0.3047525D+04 0.4573695D+03 0.1039487D+03
EXPONENTS  0.2921016D+02 0.9286663D+01 0.3163927D+01 0.7868272D+01 0.1881289D+01
EXPONENTS  0.5442493D+00 0.7868272D+01 0.1881289D+01 0.5442493D+00 0.7868272D+01
EXPONENTS  0.1881289D+01 0.5442493D+00 0.7868272D+01 0.1881289D+01 0.5442493D+00
EXPONENTS  0.1687145D+00 0.1687145D+00 0.1687145D+00 0.1687145D+00 0.8000000D+00
EXPONENTS  0.8000000D+00 0.8000000D+00 0.8000000D+00 0.8000000D+00 0.8000000D+00
EXPONENTS  0.3047525D+04 0.4573695D+03 0.1039487D+03 0.2921016D+02 0.9286663D+01
EXPONENTS  0.3163927D+01 0.7868272D+01 0.1881289D+01 0.5442493D+00 0.7868272D+01
EXPONENTS  0.1881289D+01 0.5442493D+00 0.7868272D+01 0.1881289D+01 0.5442493D+00
EXPONENTS  0.7868272D+01 0.1881289D+01 0.5442493D+00 0.1687145D+00 0.1687145D+00
EXPONENTS  0.1687145D+00 0.1687145D+00 0.8000000D+00 0.8000000D+00 0.8000000D+00
EXPONENTS  0.8000000D+00 0.8000000D+00 0.8000000D+00 0.1873114D+02 0.2825394D+01
EXPONENTS  0.6401217D+00 0.1612778D+00 0.3047525D+04 0.4573695D+03 0.1039487D+03
EXPONENTS  0.2921016D+02 0.9286663D+01 0.3163927D+01 0.7868272D+01 0.1881289D+01
EXPONENTS  0.5442493D+00 0.7868272D+01 0.1881289D+01 0.5442493D+00 0.7868272D+01
EXPONENTS  0.1881289D+01 0.5442493D+00 0.7868272D+01 0.1881289D+01 0.5442493D+00
EXPONENTS  0.1687145D+00 0.1687145D+00 0.1687145D+00 0.1687145D+00 0.8000000D+00
EXPONENTS  0.8000000D+00 0.8000000D+00 0.8000000D+00 0.8000000D+00 0.8000000D+00
EXPONENTS  0.3047525D+04 0.4573695D+03 0.1039487D+03 0.2921016D+02 0.9286663D+01
EXPONENTS  0.3163927D+01 0.7868272D+01 0.1881289D+01 0.5442493D+00 0.7868272D+01
EXPONENTS  0.1881289D+01 0.5442493D+00 0.7868272D+01 0.1881289D+01 0.5442493D+00
EXPONENTS  0.7868272D+01 0.1881289D+01 0.5442493D+00 0.1687145D+00 0.1687145D+00
EXPONENTS  0.1687145D+00 0.1687145D+00 0.8000000D+00 0.8000000D+00 0.8000000D+00
EXPONENTS  0.8000000D+00 0.8000000D+00 0.8000000D+00 0.3047525D+04 0.4573695D+03
EXPONENTS  0.1039487D+03 0.2921016D+02 0.9286663D+01 0.3163927D+01 0.7868272D+01
EXPONENTS  0.1881289D+01 0.5442493D+00 0.7868272D+01 0.1881289D+01 0.5442493D+00
EXPONENTS  0.7868272D+01 0.1881289D+01 0.5442493D+00 0.7868272D+01 0.1881289D+01
EXPONENTS  0.5442493D+00 0.1687145D+00 0.1687145D+00 0.1687145D+00 0.1687145D+00
EXPONENTS  0.8000000D+00 0.8000000D+00 0.8000000D+00 0.8000000D+00 0.8000000D+00
EXPONENTS  0.8000000D+00 0.1873114D+02 0.2825394D+01 0.6401217D+00 0.1612778D+00
EXPONENTS  0.1873114D+02 0.2825394D+01 0.6401217D+00 0.1612778D+00 0.1873114D+02
EXPONENTS  0.2825394D+01 0.6401217D+00 0.1612778D+00 0.1873114D+02 0.2825394D+01
EXPONENTS  0.6401217D+00 0.1612778D+00 0.1873114D+02 0.2825394D+01 0.6401217D+00
EXPONENTS  0.1612778D+00 0.1873114D+02 0.2825394D+01 0.6401217D+00 0.1612778D+00
EXPONENTS  0.1873114D+02 0.2825394D+01 0.6401217D+00 0.1612778D+00 0.1873114D+02
EXPONENTS  0.2825394D+01 0.6401217D+00 0.1612778D+00 0.1873114D+02 0.2825394D+01
EXPONENTS  0.6401217D+00 0.1612778D+00
MO    1     MO 0.0        OCC NO =    1.0000000  ORB. ENERGY =  -10.030725
 -0.76083179D-01 -0.14035861D+00 -0.22658231D+00 -0.29494285D+00 -0.25167527D+00
 -0.86897422D-01  0.28544371D-02  0.13156074D-02 -0.36891006D-02  0.15709089D-04
  0.12044733D-04  0.60111659D-05  0.72508120D-05  0.55594627D-05  0.27745615D-05
  0.10582022D-08  0.81136231D-09  0.40492666D-09  0.62712126D-03 -0.16448425D-03
 -0.21150335D-05 -0.70500196D-08  0.14698295D-02  0.14607983D-02  0.14993849D-02
  0.22372821D-05 -0.33100898D-08 -0.86845227D-08 -0.18406172D-02 -0.33955793D-02
 -0.54815178D-02 -0.71353074D-02 -0.60885708D-02 -0.21022372D-02  0.20804821D-04
  0.95889230D-05 -0.26888341D-04  0.56846615D-04  0.43586378D-04  0.21752658D-04
 -0.61044425D-04 -0.46804993D-04 -0.23358972D-04 -0.11333527D-08 -0.86898294D-09
 -0.43368339D-09 -0.44280636D-03  0.63874913D-04  0.13500307D-03  0.14028416D-07
  0.78119890D-04  0.74471715D-04  0.69951082D-04 -0.11068098D-04  0.44816096D-08
 -0.75584894D-09 -0.28046055D-04 -0.51739495D-04 -0.83523588D-04 -0.10872289D-03
 -0.92773443D-04 -0.32032440D-04 -0.84082730D-05 -0.38753653D-05  0.10866929D-04
 -0.27120745D-04 -0.20794467D-04 -0.10377896D-04  0.14349822D-04  0.11002533D-04
  0.54910353D-05 -0.86418513D-08 -0.66260235D-08 -0.33068501D-08 -0.33346983D-04
  0.27436736D-03 -0.65498032D-04  0.14022911D-07 -0.12312684D-04 -0.10724147D-04
  0.35185898D-05 -0.26504405D-04 -0.10861775D-07  0.17416745D-08  0.33715102D-04
  0.62197780D-04  0.10040650D-03  0.13069943D-03  0.11152606D-03  0.38507269D-04
  0.27714487D-04  0.12773582D-04 -0.35818457D-04  0.63321335D-06  0.48550783D-06
  0.24230243D-06 -0.30843601D-04 -0.23648917D-04 -0.11802467D-04  0.87554948D-10
  0.67131581D-10  0.33503364D-10  0.40900987D-03 -0.39176595D-03  0.22417738D-03
  0.13343155D-07  0.56164503D-04  0.13141947D-04 -0.96649505D-05 -0.30881033D-05
  0.71697951D-08  0.69109848D-08 -0.41906557D-04 -0.77309416D-04 -0.12480137D-03
 -0.16245430D-03 -0.13862255D-03 -0.47863034D-04  0.26523830D-04  0.12224809D-04
 -0.34279641D-04 -0.22965997D-04 -0.17608870D-04 -0.87880601D-05  0.10929899D-04
  0.83803529D-05  0.41823834D-05  0.18466811D-08  0.14159179D-08  0.70664228D-09
  0.37317109D-03  0.62207452D-04  0.15610857D-03  0.27470285D-07  0.45905543D-05
  0.24868211D-05 -0.17206627D-04  0.61216605D-05  0.80543981D-10  0.90949581D-08
 -0.14538255D-02 -0.26820241D-02 -0.43296185D-02 -0.56358768D-02 -0.48091039D-02
 -0.16604680D-02  0.72707384D-05  0.33510767D-05 -0.93967688D-05  0.38824141D-04
  0.29767889D-04  0.14856263D-04  0.56014583D-04  0.42948429D-04  0.21434276D-04
  0.84440944D-08  0.64743960D-08  0.32311773D-08 -0.36419599D-03  0.55171740D-04
 -0.14129097D-03 -0.19783599D-07  0.68156463D-04  0.86002268D-04  0.68735410D-04
  0.30638386D-04  0.82416637D-08  0.71647895D-08 -0.91740620D-05 -0.16924353D-04
 -0.27321154D-04 -0.35564024D-04 -0.30346846D-04 -0.10478037D-04  0.28198722D-04
  0.12996765D-04 -0.36444286D-04 -0.12626290D-04 -0.96810386D-05 -0.48315168D-05
 -0.21458667D-04 -0.16453145D-04 -0.82112726D-05 -0.42412201D-08 -0.32518985D-08
 -0.16229253D-08  0.42127436D-03 -0.13755153D-03 -0.10713180D-03 -0.15288211D-07
  0.21729392D-04  0.33359014D-05 -0.16817932D-04  0.20155271D-05  0.10054944D-07
 -0.42374995D-09 -0.23389453D-03 -0.43148974D-03 -0.69655823D-03 -0.90671185D-03
 -0.77369887D-03 -0.26713963D-03  0.48642196D-04  0.22419144D-04 -0.62865619D-04
  0.11170646D-03  0.85649426D-04  0.42745066D-04  0.40048312D-04  0.30706506D-04
  0.15324698D-04  0.83757309D-09  0.64219792D-09  0.32050177D-09  0.25552984D-03
 -0.70997633D-03 -0.31937980D-03  0.32182026D-07 -0.42324768D-04  0.11307624D-04
 -0.44236245D-04  0.39365262D-04 -0.15275903D-07 -0.15537259D-07  0.28851247D-03
  0.53224916D-03  0.85921518D-03  0.11184429D-02  0.95436932D-03  0.32952079D-03
 -0.39384948D-04 -0.18152487D-04  0.50901468D-04 -0.51895709D-04 -0.39790338D-04
 -0.19858167D-04  0.22144325D-05  0.16978864D-05  0.84736431D-06 -0.90564137D-08
 -0.69438836D-08 -0.34654846D-08 -0.63302849D-03  0.60609436D-03  0.28672039D-03
 -0.92319203D-09  0.61791552D-04  0.26043713D-04  0.25402285D-04 -0.17696414D-04
  0.84928308D-08 -0.10932605D-08  0.33893403D-05  0.62526711D-05  0.10093750D-04
  0.13139063D-04  0.11211586D-04  0.38710914D-05 -0.13281399D-04 -0.61213848D-05
  0.17165002D-04  0.50272506D-04  0.38545769D-04  0.19237040D-04  0.47225313D-04
  0.36209374D-04  0.18071016D-04  0.87526112D-08  0.67109471D-08  0.33492330D-08
 -0.47225883D-03 -0.19070571D-03  0.15468368D-03 -0.17150895D-07 -0.11447545D-04
 -0.25191638D-04  0.33005179D-07  0.43902906D-04 -0.13086375D-07 -0.11575316D-07
  0.12745730D-01  0.23513384D-01  0.37957892D-01  0.49409898D-01  0.42161555D-01
  0.14557372D-01 -0.16999843D-03 -0.78352122D-04  0.21970753D-03  0.23458118D-03
  0.17986197D-03  0.89763728D-04  0.42784102D-03  0.32804135D-03  0.16371563D-03
 -0.31675573D-07 -0.24286821D-07 -0.12120826D-07  0.20112172D-02  0.20690358D-03
 -0.72363562D-03  0.72476368D-07 -0.57230092D-03 -0.56666420D-03 -0.50336979D-03
 -0.15272603D-03  0.11477324D-09  0.18629432D-08  0.70803704D-05  0.12009648D-04
  0.13672560D-04  0.16490460D-03  0.52677464D+00  0.97179635D+00  0.15687806D+01
  0.20420863D+01  0.17425159D+01  0.60164887D+00 -0.19674769D-01 -0.90680830D-02
  0.25427851D-01  0.64205339D-04  0.49228582D-04  0.24568513D-04 -0.42173474D-04
 -0.32335945D-04 -0.16137903D-04  0.19518817D-07  0.14965791D-07  0.74689784D-08
 -0.37794851D-02 -0.82190364D-03  0.28184237D-04 -0.30953130D-07 -0.10187782D-01
 -0.10071757D-01 -0.10474827D-01  0.39985476D-04 -0.21823581D-08 -0.88405772D-07
  0.10110096D-01  0.18651152D-01  0.30108743D-01  0.39192637D-01  0.33443148D-01
  0.11547115D-01 -0.10928542D-03 -0.50369551D-04  0.14124148D-03  0.15065900D-03
  0.11551577D-03  0.57650464D-04 -0.40124681D-03 -0.30765061D-03 -0.15353921D-03
  0.54767139D-07  0.41991968D-07  0.20956935D-07  0.17546353D-02  0.15374000D-03
  0.73985376D-03 -0.94394425D-07 -0.54502642D-03 -0.57691224D-03 -0.44849934D-03
  0.24756941D-03 -0.48050939D-07  0.42043067D-07  0.29763673D-03  0.54908165D-03
  0.88638803D-03  0.11538138D-02  0.98455144D-03  0.33994195D-03 -0.81741551D-04
 -0.37674606D-04  0.10564353D-03  0.28315496D-04  0.21710527D-04  0.10835074D-04
 -0.24683521D-04 -0.18925758D-04 -0.94452797D-05  0.38508517D-08  0.29525888D-08
  0.14735487D-08 -0.11298802D-02  0.16748399D-03 -0.48701159D-03  0.70012449D-07
  0.69393281D-04  0.85556284D-05  0.55287864D-04 -0.52885648D-04  0.94184161D-08
  0.10561180D-07  0.30073988D-05  0.51011176D-05  0.58074420D-05  0.37690757D-04
  0.18397534D-04  0.31205699D-04  0.35526586D-04 -0.81644814D-05 -0.17843002D-05
 -0.30265108D-05 -0.34455756D-05 -0.28944697D-04  0.60990599D-05  0.10345160D-04
  0.11777599D-04  0.49769186D-04 -0.25229773D-05 -0.42794469D-05 -0.48719991D-05
 -0.35468085D-04 -0.14110740D-04 -0.23934485D-04 -0.27248566D-04 -0.62319889D-04
 -0.11212772D-03 -0.19018983D-03 -0.21652440D-03  0.15299101D-03  0.95931606D-05
  0.16271816D-04  0.18524888D-04  0.17513266D-03 -0.17571561D-04 -0.29804694D-04
 -0.33931590D-04 -0.12498708D-03
MO    2     MO 0.0        OCC NO =    1.0000000  ORB. ENERGY =  -10.030724
  0.52677372D+00  0.97179466D+00  0.15687779D+01  0.20420827D+01  0.17425129D+01
  0.60164781D+00 -0.19670968D-01 -0.90663313D-02  0.25422939D-01 -0.62305438D-04
 -0.47771858D-04 -0.23841505D-04 -0.41829316D-04 -0.32072067D-04 -0.16006209D-04
 -0.13722779D-07 -0.10521757D-07 -0.52510941D-08 -0.37555214D-02  0.80840162D-03
  0.28765783D-04  0.45057316D-07 -0.10188238D-01 -0.10069934D-01 -0.10478794D-01
 -0.41009675D-04  0.18757650D-07  0.98090777D-07  0.12744127D-01  0.23510426D-01
  0.37953118D-01  0.49403683D-01  0.42156252D-01  0.14555541D-01 -0.17104450D-03
 -0.78834255D-04  0.22105948D-03 -0.22780447D-03 -0.17466602D-03 -0.87170584D-04
  0.42805855D-03  0.32820815D-03  0.16379887D-03  0.31307589D-07  0.24004673D-07
  0.11980014D-07  0.19662881D-02 -0.19687950D-03 -0.71464036D-03 -0.82391090D-07
 -0.57360779D-03 -0.56880851D-03 -0.50414761D-03  0.15597460D-03  0.19299350D-08
  0.13739421D-08  0.29254051D-03  0.53968012D-03  0.87121105D-03  0.11340579D-02
  0.96769368D-03  0.33412137D-03 -0.43544931D-04 -0.20069819D-04  0.56277868D-04
  0.46108015D-04  0.35352702D-04  0.17643476D-04  0.65417612D-05  0.50158076D-05
  0.25032395D-05  0.88880885D-08  0.68148225D-08  0.34010741D-08 -0.66984730D-03
 -0.55098186D-03  0.27961533D-03 -0.54433993D-08  0.60793358D-04  0.23990880D-04
  0.27523152D-04  0.10633004D-04  0.42910589D-08  0.51653576D-08 -0.23399543D-03
 -0.43167587D-03 -0.69685870D-03 -0.90710298D-03 -0.77403261D-03 -0.26725486D-03
  0.58894113D-04  0.27144243D-04 -0.76115290D-04 -0.11627803D-03 -0.89154615D-04
 -0.44494401D-04  0.32655170D-04  0.25037914D-04  0.12495674D-04 -0.26316398D-08
 -0.20177745D-08 -0.10070109D-08  0.38708837D-03  0.62465311D-03 -0.26685752D-03
 -0.25761432D-07 -0.27557284D-04  0.15668182D-04 -0.48970908D-04 -0.41954502D-04
 -0.13212739D-07  0.20302746D-07  0.29793541D-03  0.54963266D-03  0.88727753D-03
  0.11549717D-02  0.98553945D-03  0.34028309D-03 -0.77398745D-04 -0.35673011D-04
  0.10003085D-03 -0.36298099D-04 -0.27831080D-04 -0.13889659D-04 -0.22510682D-04
 -0.17259763D-04 -0.86138315D-05 -0.42072500D-08 -0.32258525D-08 -0.16099265D-08
 -0.10679324D-02 -0.15626059D-03 -0.46171121D-03 -0.72190540D-07  0.73703499D-04
  0.96539084D-05  0.52568327D-04  0.56947193D-04  0.10371976D-07 -0.60975718D-08
  0.10112551D-01  0.18655682D-01  0.30116055D-01  0.39202155D-01  0.33451270D-01
  0.11549920D-01 -0.11181555D-03 -0.51535684D-04  0.14451144D-03 -0.14562694D-03
 -0.11165750D-03 -0.55724920D-04 -0.40182256D-03 -0.30809205D-03 -0.15375953D-03
 -0.61400169D-07 -0.47077755D-07 -0.23495099D-07  0.17219563D-02 -0.14400740D-03
  0.72970040D-03  0.99890242D-07 -0.54815253D-03 -0.57612935D-03 -0.44734157D-03
 -0.24907095D-03 -0.56362480D-07 -0.48305908D-07  0.82807019D-06  0.15276278D-05
  0.24660650D-05  0.32100838D-05  0.27391704D-05  0.94576970D-06 -0.55287272D-05
 -0.25481853D-05  0.71453776D-05 -0.56139541D-04 -0.43044240D-04 -0.21482092D-04
  0.42907385D-04  0.32898661D-04  0.16418738D-04 -0.12805469D-07 -0.98184213D-08
 -0.49000804D-08 -0.36810212D-03  0.15825252D-03  0.12966986D-03  0.13893096D-07
 -0.55254195D-05 -0.25281229D-04 -0.49268626D-05 -0.45178510D-04 -0.83457805D-08
  0.91305378D-08 -0.33861569D-04 -0.62467982D-04 -0.10084269D-03 -0.13126722D-03
 -0.11201056D-03 -0.38674554D-04  0.43245536D-04  0.19931828D-04 -0.55890926D-04
  0.32294156D-04  0.24761111D-04  0.12357530D-04 -0.20342523D-04 -0.15597356D-04
 -0.77841739D-05  0.89127147D-09  0.68337044D-09  0.34104974D-09  0.50182321D-03
  0.19900789D-03  0.13950619D-03 -0.63889531D-08  0.46071640D-04  0.17038353D-04
 -0.23126445D-04  0.14832986D-04  0.19000824D-08 -0.11836508D-07  0.55873475D-04
  0.10307565D-03  0.16639606D-03  0.21659823D-03  0.18482366D-03  0.63815169D-04
 -0.20385512D-04 -0.93956640D-05  0.26346422D-04  0.12966227D-04  0.99416805D-05
  0.49615954D-05  0.15614658D-04  0.11972330D-04  0.59750316D-05  0.50519397D-08
  0.38735069D-08  0.19331514D-08 -0.22151766D-03 -0.10725408D-03  0.16295525D-04
 -0.10371819D-07  0.53918174D-05 -0.34980515D-05  0.11162395D-04  0.22412579D-04
 -0.85442191D-08 -0.26246150D-08 -0.85653350D-05 -0.15801371D-04 -0.25508312D-04
 -0.33204242D-04 -0.28333240D-04 -0.97827870D-05  0.25481991D-04  0.11744626D-04
 -0.32933158D-04  0.27995310D-04  0.21465028D-04  0.10712553D-04 -0.84410666D-05
 -0.64720745D-05 -0.32300188D-05  0.81675995D-08  0.62623973D-08  0.31253751D-08
  0.29990410D-03  0.87152635D-04 -0.66063391D-04  0.10635129D-07  0.19278276D-04
 -0.39537325D-05 -0.17524656D-04  0.10850460D-04  0.62180782D-08 -0.20374300D-08
  0.18407814D-02  0.33958822D-02  0.54820068D-02  0.71359440D-02  0.60891139D-02
  0.21024247D-02 -0.28450662D-04 -0.13112884D-04  0.36769896D-04  0.99340351D-05
  0.76167880D-05  0.38013111D-05  0.62569747D-04  0.47974513D-04  0.23942645D-04
 -0.70723081D-08 -0.54225973D-08 -0.27062561D-08  0.13165027D-03 -0.55573460D-05
 -0.72721253D-04  0.94604431D-08 -0.87379109D-04 -0.89520090D-04 -0.75560567D-04
 -0.33516350D-04  0.51974668D-08  0.50477004D-09  0.22843812D-06  0.38747429D-06
  0.44112579D-06  0.18469751D-04  0.76076604D-01  0.14034648D+00  0.22656273D+00
  0.29491736D+00  0.25165352D+00  0.86889912D-01 -0.28281107D-02 -0.13034736D-02
  0.36550761D-02  0.25622627D-05  0.19645805D-05  0.98046335D-06 -0.48811764D-05
 -0.37425764D-05 -0.18678079D-05  0.39377691D-08  0.30192316D-08  0.15068082D-08
 -0.46113057D-03 -0.70974556D-04  0.61107938D-05 -0.48522928D-08 -0.14729977D-02
 -0.14481857D-02 -0.15268629D-02  0.94606372D-05 -0.93548633D-09 -0.18063878D-07
  0.14668510D-02  0.27060536D-02  0.43684096D-02  0.56863713D-02  0.48521910D-02
  0.16753449D-02 -0.24661836D-04 -0.11366618D-04  0.31873183D-04  0.39673835D-05
  0.30419380D-05  0.15181403D-05 -0.59969566D-04 -0.45980860D-04 -0.22947672D-04
  0.84108683D-08  0.64489203D-08  0.32184632D-08  0.13791484D-03 -0.12169725D-04
  0.70952023D-04 -0.82251662D-08 -0.89726888D-04 -0.80526902D-04 -0.60647439D-04
  0.41089667D-04 -0.64374406D-08  0.58247283D-08  0.44110884D-04  0.81375968D-04
  0.13136604D-03  0.17099956D-03  0.14591423D-03  0.50380678D-04  0.35396269D-05
  0.16314108D-05 -0.45746461D-05  0.32297428D-04  0.24763619D-04  0.12358781D-04
  0.41142952D-05  0.31545806D-05  0.15743568D-05 -0.82852067D-09 -0.63525710D-09
 -0.31703781D-09  0.55746252D-04 -0.15451392D-04  0.19085604D-04 -0.55215203D-08
  0.25257307D-04  0.51164187D-05 -0.16294776D-05 -0.21984678D-04  0.23760406D-08
 -0.63384918D-08 -0.13824761D-04 -0.23449412D-04 -0.26696327D-04 -0.53856182D-04
 -0.11147790D-03 -0.18908762D-03 -0.21526957D-03  0.15710021D-03  0.68558689D-05
  0.11628851D-04  0.13239036D-04  0.16339088D-03 -0.16520899D-04 -0.28022572D-04
 -0.31902708D-04 -0.11562926D-03  0.92577743D-05  0.15702937D-04  0.17877239D-04
  0.17213221D-03 -0.10272507D-05 -0.17424116D-05 -0.19836741D-05  0.20911657D-04
 -0.13896932D-04 -0.23571828D-04 -0.26835693D-04  0.36620694D-04  0.19961834D-06
  0.33859049D-06  0.38547331D-06  0.14686289D-04  0.11751878D-05  0.19933409D-05
  0.22693482D-05  0.15016683D-04
MO    3     MO 0.0        OCC NO =    1.0000000  ORB. ENERGY =  -10.024818
  0.92571144D-04  0.17077568D-03  0.27568491D-03  0.35885983D-03  0.30621575D-03
  0.10572894D-03  0.35418403D-04  0.16324310D-04 -0.45775068D-04  0.28426688D-04
  0.21795781D-04  0.10877622D-04 -0.40613970D-05 -0.31140216D-05 -0.15541150D-05
 -0.21709146D-08 -0.16645196D-08 -0.83071195D-09  0.23911884D-03 -0.10714742D-03
  0.92813069D-05 -0.55200293D-08 -0.78853017D-05  0.14370454D-05 -0.48878739D-04
  0.26529822D-05  0.43084416D-08  0.17281280D-07  0.67197713D-03  0.12396666D-02
  0.20012063D-02  0.26049759D-02  0.22228307D-02  0.76749002D-03 -0.52101980D-05
 -0.24013755D-05  0.67337076D-05  0.13961927D-04  0.10705120D-04  0.53426050D-05
  0.90526460D-05  0.69409948D-05  0.34640429D-05 -0.29862728D-08 -0.22896846D-08
 -0.11427131D-08 -0.11770196D-03 -0.12512376D-04  0.11739936D-03  0.10148418D-07
  0.41896832D-04  0.85741887D-05 -0.22127191D-04  0.26660454D-04  0.14587601D-07
 -0.14114895D-08  0.18954258D-01  0.34966904D-01  0.56447425D-01  0.73477776D-01
  0.62698719D-01  0.21648361D-01 -0.56247526D-03 -0.25924433D-03  0.72694817D-03
  0.19578394D-03  0.15011471D-03  0.74917760D-04  0.27707462D-03  0.21244325D-03
  0.10602407D-03 -0.31626788D-08 -0.24249415D-08 -0.12102158D-08  0.65320672D-03
 -0.13363615D-03 -0.33603451D-03 -0.19843989D-07 -0.57792357D-03 -0.64083154D-03
 -0.52003924D-03 -0.11775328D-03 -0.32099454D-08 -0.12300874D-07  0.37598667D+00
  0.69362200D+00  0.11197210D+01  0.14575440D+01  0.12437249D+01  0.42942833D+00
 -0.13983649D-01 -0.64450509D-02  0.18072596D-01  0.28713912D-03  0.22016006D-03
  0.10987530D-03  0.61689467D-04  0.47299570D-04  0.23605801D-04 -0.12401763D-07
 -0.95088849D-08 -0.47456000D-08 -0.18810275D-02 -0.31445902D-03 -0.85275542D-04
  0.11632627D-07 -0.76603361D-02 -0.74297011D-02 -0.75525991D-02 -0.71821131D-04
 -0.11313520D-07  0.55519310D-07  0.19530523D-01  0.36030002D-01  0.58163594D-01
  0.75711718D-01  0.64604946D-01  0.22306535D-01 -0.58773170D-03 -0.27088500D-03
  0.75958983D-03  0.16892063D-03  0.12951762D-03  0.64638372D-04 -0.27495699D-03
 -0.21081958D-03 -0.10521375D-03 -0.34797478D-08 -0.26680499D-08 -0.13315439D-08
  0.61442866D-03 -0.32905142D-04  0.24829325D-03  0.16941180D-07 -0.59812156D-03
 -0.63625356D-03 -0.52506340D-03  0.15980606D-03  0.30309296D-07 -0.33320502D-07
  0.74745086D-03  0.13789009D-02  0.22259736D-02  0.28975562D-02  0.24724900D-02
  0.85369137D-03 -0.15443009D-04 -0.71176686D-05  0.19958686D-04  0.28290622D-04
  0.21691455D-04  0.10825556D-04 -0.29349311D-05 -0.22503190D-05 -0.11230669D-05
 -0.13936690D-07 -0.10685770D-07 -0.53329480D-08 -0.19772444D-03  0.36473233D-04
 -0.90626771D-04 -0.23910134D-08  0.43071065D-04  0.29894649D-05 -0.19621465D-04
 -0.44775047D-04 -0.17488856D-07  0.10492762D-07  0.10060071D-03  0.18558866D-03
  0.29959765D-03  0.38998712D-03  0.33277671D-03  0.11489980D-03  0.30148402D-04
  0.13895371D-04 -0.38964071D-04  0.79957513D-06  0.61306349D-06  0.30596165D-06
  0.52664525D-04  0.40379817D-04  0.20152359D-04  0.68286278D-08  0.52357586D-08
  0.26130105D-08  0.69986332D-04  0.41484477D-04 -0.21029907D-05 -0.46997359D-09
  0.23403141D-04  0.26428398D-04 -0.33874964D-04 -0.14987053D-04  0.11126649D-07
  0.66367365D-08  0.37495136D+00  0.69171204D+00  0.11166377D+01  0.14535305D+01
  0.12403002D+01  0.42824586D+00 -0.13944405D-01 -0.64269636D-02  0.18021877D-01