 Generated by Multiwfn
GAUSSIAN             93 MOL ORBITALS    432 PRIMITIVES       24 NUCLEI
  C    1    (CENTRE  1)   6.70429972 -0.55852345  0.00009177  CHARGE =  6.0
  C    2    (CENTRE  2)   5.34284790  1.65348911  0.00027233  CHARGE =  6.0
  C    3    (CENTRE  3)   2.67903286  1.63027556  0.00015157  CHARGE =  6.0
  C    4    (CENTRE  4)   1.37305537 -0.71556383 -0.00003581  CHARGE =  6.0
  C    5    (CENTRE  5)   2.82490912 -2.94942568 -0.00032312  CHARGE =  6.0
  C    6    (CENTRE  6)   5.42590594 -2.87952126 -0.00026369  CHARGE =  6.0
  C    7    (CENTRE  7)   1.27852267  3.94311689  0.00010573  CHARGE =  6.0
  C    8    (CENTRE  8)  -1.37305806 -0.71555861  0.00001064  CHARGE =  6.0
  C    9    (CENTRE  9)  -2.67903027  1.63027437 -0.00016189  CHARGE =  6.0
  C   10    (CENTRE 10)  -1.27852332  3.94311631 -0.00014426  CHARGE =  6.0
  C   11    (CENTRE 11)  -5.34285167  1.65348886 -0.00022764  CHARGE =  6.0
  H   12    (CENTRE 12)  -6.30625805  3.45871137 -0.00040716  CHARGE =  1.0
  C   13    (CENTRE 13)  -6.70429828 -0.55852056 -0.00004199  CHARGE =  6.0
  C   14    (CENTRE 14)  -5.42590167 -2.87952517  0.00026751  CHARGE =  6.0
  C   15    (CENTRE 15)  -2.82491172 -2.94942884  0.00029449  CHARGE =  6.0
  H   16    (CENTRE 16)   2.31769426  5.70559384  0.00023572  CHARGE =  1.0
  H   17    (CENTRE 17)   8.74791230 -0.51421808  0.00019086  CHARGE =  1.0
  H   18    (CENTRE 18)   6.30625655  3.45871077  0.00047842  CHARGE =  1.0
  H   19    (CENTRE 19)   1.89586667 -4.76640256 -0.00070576  CHARGE =  1.0
  H   20    (CENTRE 20)   6.48739916 -4.62676822 -0.00053925  CHARGE =  1.0
  H   21    (CENTRE 21)  -2.31769148  5.70559522 -0.00030544  CHARGE =  1.0
  H   22    (CENTRE 22)  -8.74791129 -0.51422623 -0.00008341  CHARGE =  1.0
  H   23    (CENTRE 23)  -6.48740988 -4.62676274  0.00052680  CHARGE =  1.0
  H   24    (CENTRE 24)  -1.89584992 -4.76639562  0.00063523  CHARGE =  1.0
CENTRE ASSIGNMENTS    1  1  1  1  1  1  1  1  1  1  1  1  1  1  1  1  1  1  1  1
CENTRE ASSIGNMENTS    1  1  1  1  1  1  1  1  2  2  2  2  2  2  2  2  2  2  2  2
CENTRE ASSIGNMENTS    2  2  2  2  2  2  2  2  2  2  2  2  2  2  2  2  3  3  3  3
CENTRE ASSIGNMENTS    3  3  3  3  3  3  3  3  3  3  3  3  3  3  3  3  3  3  3  3
CENTRE ASSIGNMENTS    3  3  3  3  4  4  4  4  4  4  4  4  4  4  4  4  4  4  4  4
CENTRE ASSIGNMENTS    4  4  4  4  4  4  4  4  4  4  4  4  5  5  5  5  5  5  5  5
CENTRE ASSIGNMENTS    5  5  5  5  5  5  5  5  5  5  5  5  5  5  5  5  5  5  5  5
CENTRE ASSIGNMENTS    6  6  6  6  6  6  6  6  6  6  6  6  6  6  6  6  6  6  6  6
CENTRE ASSIGNMENTS    6  6  6  6  6  6  6  6  7  7  7  7  7  7  7  7  7  7  7  7
CENTRE ASSIGNMENTS    7  7  7  7  7  7  7  7  7  7  7  7  7  7  7  7  8  8  8  8
CENTRE ASSIGNMENTS    8  8  8  8  8  8  8  8  8  8  8  8  8  8  8  8  8  8  8  8
CENTRE ASSIGNMENTS    8  8  8  8  9  9  9  9  9  9  9  9  9  9  9  9  9  9  9  9
CENTRE ASSIGNMENTS    9  9  9  9  9  9  9  9  9  9  9  9 10 10 10 10 10 10 10 10
CENTRE ASSIGNMENTS   10 10 10 10 10 10 10 10 10 10 10 10 10 10 10 10 10 10 10 10
CENTRE ASSIGNMENTS   11 11 11 11 11 11 11 11 11 11 11 11 11 11 11 11 11 11 11 11
CENTRE ASSIGNMENTS   11 11 11 11 11 11 11 11 12 12 12 12 13 13 13 13 13 13 13 13
CENTRE ASSIGNMENTS   13 13 13 13 13 13 13 13 13 13 13 13 13 13 13 13 13 13 13 13
CENTRE ASSIGNMENTS   14 14 14 14 14 14 14 14 14 14 14 14 14 14 14 14 14 14 14 14
CENTRE ASSIGNMENTS   14 14 14 14 14 14 14 14 15 15 15 15 15 15 15 15 15 15 15 15
CENTRE ASSIGNMENTS   15 15 15 15 15 15 15 15 15 15 15 15 15 15 15 15 16 16 16 16
CENTRE ASSIGNMENTS   17 17 17 17 18 18 18 18 19 19 19 19 20 20 20 20 21 21 21 21
CENTRE ASSIGNMENTS   22 22 22 22 23 23 23 23 24 24 24 24
TYPE ASSIGNMENTS      1  1  1  1  1  1  1  1  1  2  2  2  3  3  3  4  4  4  1  2
TYPE ASSIGNMENTS      3  4  5  6  7  8  9 10  1  1  1  1  1  1  1  1  1  2  2  2
TYPE ASSIGNMENTS      3  3  3  4  4  4  1  2  3  4  5  6  7  8  9 10  1  1  1  1
TYPE ASSIGNMENTS      1  1  1  1  1  2  2  2  3  3  3  4  4  4  1  2  3  4  5  6
TYPE ASSIGNMENTS      7  8  9 10  1  1  1  1  1  1  1  1  1  2  2  2  3  3  3  4
TYPE ASSIGNMENTS      4  4  1  2  3  4  5  6  7  8  9 10  1  1  1  1  1  1  1  1
TYPE ASSIGNMENTS      1  2  2  2  3  3  3  4  4  4  1  2  3  4  5  6  7  8  9 10
TYPE ASSIGNMENTS      1  1  1  1  1  1  1  1  1  2  2  2  3  3  3  4  4  4  1  2
TYPE ASSIGNMENTS      3  4  5  6  7  8  9 10  1  1  1  1  1  1  1  1  1  2  2  2
TYPE ASSIGNMENTS      3  3  3  4  4  4  1  2  3  4  5  6  7  8  9 10  1  1  1  1
TYPE ASSIGNMENTS      1  1  1  1  1  2  2  2  3  3  3  4  4  4  1  2  3  4  5  6
TYPE ASSIGNMENTS      7  8  9 10  1  1  1  1  1  1  1  1  1  2  2  2  3  3  3  4
TYPE ASSIGNMENTS      4  4  1  2  3  4  5  6  7  8  9 10  1  1  1  1  1  1  1  1
TYPE ASSIGNMENTS      1  2  2  2  3  3  3  4  4  4  1  2  3  4  5  6  7  8  9 10
TYPE ASSIGNMENTS      1  1  1  1  1  1  1  1  1  2  2  2  3  3  3  4  4  4  1  2
TYPE ASSIGNMENTS      3  4  5  6  7  8  9 10  1  1  1  1  1  1  1  1  1  1  1  1
TYPE ASSIGNMENTS      1  2  2  2  3  3  3  4  4  4  1  2  3  4  5  6  7  8  9 10
TYPE ASSIGNMENTS      1  1  1  1  1  1  1  1  1  2  2  2  3  3  3  4  4  4  1  2
TYPE ASSIGNMENTS      3  4  5  6  7  8  9 10  1  1  1  1  1  1  1  1  1  2  2  2
TYPE ASSIGNMENTS      3  3  3  4  4  4  1  2  3  4  5  6  7  8  9 10  1  1  1  1
TYPE ASSIGNMENTS      1  1  1  1  1  1  1  1  1  1  1  1  1  1  1  1  1  1  1  1
TYPE ASSIGNMENTS      1  1  1  1  1  1  1  1  1  1  1  1
EXPONENTS  0.3047525D+04 0.4573695D+03 0.1039487D+03 0.2921016D+02 0.9286663D+01
EXPONENTS  0.3163927D+01 0.7868272D+01 0.1881289D+01 0.5442493D+00 0.7868272D+01
EXPONENTS  0.1881289D+01 0.5442493D+00 0.7868272D+01 0.1881289D+01 0.5442493D+00
EXPONENTS  0.7868272D+01 0.1881289D+01 0.5442493D+00 0.1687145D+00 0.1687145D+00
EXPONENTS  0.1687145D+00 0.1687145D+00 0.8000000D+00 0.8000000D+00 0.8000000D+00
EXPONENTS  0.8000000D+00 0.8000000D+00 0.8000000D+00 0.3047525D+04 0.4573695D+03
EXPONENTS  0.1039487D+03 0.2921016D+02 0.9286663D+01 0.3163927D+01 0.7868272D+01
EXPONENTS  0.1881289D+01 0.5442493D+00 0.7868272D+01 0.1881289D+01 0.5442493D+00
EXPONENTS  0.7868272D+01 0.1881289D+01 0.5442493D+00 0.7868272D+01 0.1881289D+01
EXPONENTS  0.5442493D+00 0.1687145D+00 0.1687145D+00 0.1687145D+00 0.1687145D+00
EXPONENTS  0.8000000D+00 0.8000000D+00 0.8000000D+00 0.8000000D+00 0.8000000D+00
EXPONENTS  0.8000000D+00 0.3047525D+04 0.4573695D+03 0.1039487D+03 0.2921016D+02
EXPONENTS  0.9286663D+01 0.3163927D+01 0.7868272D+01 0.1881289D+01 0.5442493D+00
EXPONENTS  0.7868272D+01 0.1881289D+01 0.5442493D+00 0.7868272D+01 0.1881289D+01
EXPONENTS  0.5442493D+00 0.7868272D+01 0.1881289D+01 0.5442493D+00 0.1687145D+00
EXPONENTS  0.1687145D+00 0.1687145D+00 0.1687145D+00 0.8000000D+00 0.8000000D+00
EXPONENTS  0.8000000D+00 0.8000000D+00 0.8000000D+00 0.8000000D+00 0.3047525D+04
EXPONENTS  0.4573695D+03 0.1039487D+03 0.2921016D+02 0.9286663D+01 0.3163927D+01
EXPONENTS  0.7868272D+01 0.1881289D+01 0.5442493D+00 0.7868272D+01 0.1881289D+01
EXPONENTS  0.5442493D+00 0.7868272D+01 0.1881289D+01 0.5442493D+00 0.7868272D+01
EXPONENTS  0.1881289D+01 0.5442493D+00 0.1687145D+00 0.1687145D+00 0.1687145D+00
EXPONENTS  0.1687145D+00 0.8000000D+00 0.8000000D+00 0.8000000D+00 0.8000000D+00
EXPONENTS  0.8000000D+00 0.8000000D+00 0.3047525D+04 0.4573695D+03 0.1039487D+03
EXPONENTS  0.2921016D+02 0.9286663D+01 0.3163927D+01 0.7868272D+01 0.1881289D+01
EXPONENTS  0.5442493D+00 0.7868272D+01 0.1881289D+01 0.5442493D+00 0.7868272D+01
EXPONENTS  0.1881289D+01 0.5442493D+00 0.7868272D+01 0.1881289D+01 0.5442493D+00
EXPONENTS  0.1687145D+00 0.1687145D+00 0.1687145D+00 0.1687145D+00 0.8000000D+00
EXPONENTS  0.8000000D+00 0.8000000D+00 0.8000000D+00 0.8000000D+00 0.8000000D+00
EXPONENTS  0.3047525D+04 0.4573695D+03 0.1039487D+03 0.2921016D+02 0.9286663D+01
EXPONENTS  0.3163927D+01 0.7868272D+01 0.1881289D+01 0.5442493D+00 0.7868272D+01
EXPONENTS  0.1881289D+01 0.5442493D+00 0.7868272D+01 0.1881289D+01 0.5442493D+00
EXPONENTS  0.7868272D+01 0.1881289D+01 0.5442493D+00 0.1687145D+00 0.1687145D+00
EXPONENTS  0.1687145D+00 0.1687145D+00 0.8000000D+00 0.8000000D+00 0.8000000D+00
EXPONENTS  0.8000000D+00 0.8000000D+00 0.8000000D+00 0.3047525D+04 0.4573695D+03
EXPONENTS  0.1039487D+03 0.2921016D+02 0.9286663D+01 0.3163927D+01 0.7868272D+01
EXPONENTS  0.1881289D+01 0.5442493D+00 0.7868272D+01 0.1881289D+01 0.5442493D+00
EXPONENTS  0.7868272D+01 0.1881289D+01 0.5442493D+00 0.7868272D+01 0.1881289D+01
EXPONENTS  0.5442493D+00 0.1687145D+00 0.1687145D+00 0.1687145D+00 0.1687145D+00
EXPONENTS  0.8000000D+00 0.8000000D+00 0.8000000D+00 0.8000000D+00 0.8000000D+00
EXPONENTS  0.8000000D+00 0.3047525D+04 0.4573695D+03 0.1039487D+03 0.2921016D+02
EXPONENTS  0.9286663D+01 0.3163927D+01 0.7868272D+01 0.1881289D+01 0.5442493D+00
EXPONENTS  0.7868272D+01 0.1881289D+01 0.5442493D+00 0.7868272D+01 0.1881289D+01
EXPONENTS  0.5442493D+00 0.7868272D+01 0.1881289D+01 0.5442493D+00 0.1687145D+00
EXPONENTS  0.1687145D+00 0.1687145D+00 0.1687145D+00 0.8000000D+00 0.8000000D+00
EXPONENTS  0.8000000D+00 0.8000000D+00 0.8000000D+00 0.8000000D+00 0.3047525D+04
EXPONENTS  0.4573695D+03 0.1039487D+03 0.2921016D+02 0.9286663D+01 0.3163927D+01
EXPONENTS  0.7868272D+01 0.1881289D+01 0.5442493D+00 0.7868272D+01 0.1881289D+01
EXPONENTS  0.5442493D+00 0.7868272D+01 0.1881289D+01 0.5442493D+00 0.7868272D+01
EXPONENTS  0.1881289D+01 0.5442493D+00 0.1687145D+00 0.1687145D+00 0.1687145D+00
EXPONENTS  0.1687145D+00 0.8000000D+00 0.8000000D+00 0.8000000D+00 0.8000000D+00
EXPONENTS  0.8000000D+00 0.8000000D+00 0.3047525D+04 0.4573695D+03 0.1039487D+03
EXPONENTS  0.2921016D+02 0.9286663D+01 0.3163927D+01 0.7868272D+01 0.1881289D+01
EXPONENTS  0.5442493D+00 0.7868272D+01 0.1881289D+01 0.5442493D+00 0.7868272D+01
EXPONENTS  0.1881289D+01 0.5442493D+00 0.7868272D+01 0.1881289D+01 0.5442493D+00
EXPONENTS  0.1687145D+00 0.1687145D+00 0.1687145D+00 0.1687145D+00 0.8000000D+00
EXPONENTS  0.8000000D+00 0.8000000D+00 0.8000000D+00 0.8000000D+00 0.8000000D+00
EXPONENTS  0.3047525D+04 0.4573695D+03 0.1039487D+03 0.2921016D+02 0.9286663D+01
EXPONENTS  0.3163927D+01 0.7868272D+01 0.1881289D+01 0.5442493D+00 0.7868272D+01
EXPONENTS  0.1881289D+01 0.5442493D+00 0.7868272D+01 0.1881289D+01 0.5442493D+00
EXPONENTS  0.7868272D+01 0.1881289D+01 0.5442493D+00 0.1687145D+00 0.1687145D+00
EXPONENTS  0.1687145D+00 0.1687145D+00 0.8000000D+00 0.8000000D+00 0.8000000D+00
EXPONENTS  0.8000000D+00 0.8000000D+00 0.8000000D+00 0.1873114D+02 0.2825394D+01
EXPONENTS  0.6401217D+00 0.1612778D+00 0.3047525D+04 0.4573695D+03 0.1039487D+03
EXPONENTS  0.2921016D+02 0.9286663D+01 0.3163927D+01 0.7868272D+01 0.1881289D+01
EXPONENTS  0.5442493D+00 0.7868272D+01 0.1881289D+01 0.5442493D+00 0.7868272D+01
EXPONENTS  0.1881289D+01 0.5442493D+00 0.7868272D+01 0.1881289D+01 0.5442493D+00
EXPONENTS  0.1687145D+00 0.1687145D+00 0.1687145D+00 0.1687145D+00 0.8000000D+00
EXPONENTS  0.8000000D+00 0.8000000D+00 0.8000000D+00 0.8000000D+00 0.8000000D+00
EXPONENTS  0.3047525D+04 0.4573695D+03 0.1039487D+03 0.2921016D+02 0.9286663D+01
EXPONENTS  0.3163927D+01 0.7868272D+01 0.1881289D+01 0.5442493D+00 0.7868272D+01
EXPONENTS  0.1881289D+01 0.5442493D+00 0.7868272D+01 0.1881289D+01 0.5442493D+00
EXPONENTS  0.7868272D+01 0.1881289D+01 0.5442493D+00 0.1687145D+00 0.1687145D+00
EXPONENTS  0.1687145D+00 0.1687145D+00 0.8000000D+00 0.8000000D+00 0.8000000D+00
EXPONENTS  0.8000000D+00 0.8000000D+00 0.8000000D+00 0.3047525D+04 0.4573695D+03
EXPONENTS  0.1039487D+03 0.2921016D+02 0.9286663D+01 0.3163927D+01 0.7868272D+01
EXPONENTS  0.1881289D+01 0.5442493D+00 0.7868272D+01 0.1881289D+01 0.5442493D+00
EXPONENTS  0.7868272D+01 0.1881289D+01 0.5442493D+00 0.7868272D+01 0.1881289D+01
EXPONENTS  0.5442493D+00 0.1687145D+00 0.1687145D+00 0.1687145D+00 0.1687145D+00
EXPONENTS  0.8000000D+00 0.8000000D+00 0.8000000D+00 0.8000000D+00 0.8000000D+00
EXPONENTS  0.8000000D+00 0.1873114D+02 0.2825394D+01 0.6401217D+00 0.1612778D+00
EXPONENTS  0.1873114D+02 0.2825394D+01 0.6401217D+00 0.1612778D+00 0.1873114D+02
EXPONENTS  0.2825394D+01 0.6401217D+00 0.1612778D+00 0.1873114D+02 0.2825394D+01
EXPONENTS  0.6401217D+00 0.1612778D+00 0.1873114D+02 0.2825394D+01 0.6401217D+00
EXPONENTS  0.1612778D+00 0.1873114D+02 0.2825394D+01 0.6401217D+00 0.1612778D+00
EXPONENTS  0.1873114D+02 0.2825394D+01 0.6401217D+00 0.1612778D+00 0.1873114D+02
EXPONENTS  0.2825394D+01 0.6401217D+00 0.1612778D+00 0.1873114D+02 0.2825394D+01
EXPONENTS  0.6401217D+00 0.1612778D+00
MO    1     MO 0.0        OCC NO =    1.0000000  ORB. ENERGY =  -10.381380
 -0.70039517D-05 -0.12920923D-04 -0.20858377D-04 -0.27151409D-04 -0.23168346D-04
 -0.79994732D-05  0.25582760D-04  0.11791071D-04 -0.33063393D-04 -0.26228527D-05
 -0.20110371D-05 -0.10036485D-05 -0.99574178D-05 -0.76347164D-05 -0.38102586D-05
 -0.72586290D-08 -0.55654563D-08 -0.27775528D-08  0.18455274D-03 -0.73811130D-04
  0.52801377D-04  0.43465871D-08  0.12211978D-04 -0.10043697D-04 -0.23253018D-04
 -0.13818103D-04 -0.11919484D-08 -0.21271891D-09  0.63934996D-04  0.11794758D-03
  0.19040397D-03  0.24784940D-03  0.21149034D-03  0.73022532D-04  0.28422492D-04
  0.13099900D-04 -0.36733488D-04 -0.13063699D-04 -0.10016416D-04 -0.49988936D-05
 -0.46359458D-04 -0.35545492D-04 -0.17739692D-04 -0.32149987D-08 -0.24650571D-08
 -0.12302363D-08  0.36593198D-04 -0.88476751D-04  0.12512923D-03  0.10594315D-07
  0.75749281D-04  0.15932709D-04 -0.21478941D-04 -0.32250638D-04  0.34412918D-08
 -0.92821346D-08  0.72941486D-02  0.13456280D-01  0.21722608D-01  0.28276381D-01
  0.24128287D-01  0.83309177D-02 -0.12537548D-03 -0.57785446D-04  0.16203642D-03
  0.22740506D-03  0.17435978D-03  0.87017748D-04 -0.22035332D-03 -0.16895295D-03
 -0.84319364D-04  0.22825747D-07  0.17501335D-07  0.87343926D-08  0.67324819D-03
 -0.31801347D-03 -0.75739363D-05 -0.34019908D-07 -0.32086380D-03 -0.40539416D-03
 -0.29330156D-03  0.82429857D-04  0.10416619D-07  0.16265253D-09  0.63615562D-04
  0.11735829D-03  0.18945267D-03  0.24661108D-03  0.21043368D-03  0.72657694D-04
 -0.11592056D-04 -0.53427682D-05  0.14981680D-04  0.42772021D-04  0.32794873D-04
  0.16366940D-04 -0.72575171D-04 -0.55646038D-04 -0.27771273D-04  0.18692660D-08
  0.14332346D-08  0.71528452D-09 -0.38019045D-03 -0.11302167D-03 -0.87599309D-04
 -0.41112733D-08  0.21665379D-04 -0.63495785D-05 -0.53809528D-05  0.17714788D-04
  0.26196655D-07 -0.87225937D-09 -0.75725687D-05 -0.13969911D-04 -0.22551767D-04
 -0.29355700D-04 -0.25049272D-04 -0.86489117D-05  0.32284024D-04  0.14879677D-04
 -0.41724167D-04 -0.27691650D-04 -0.21232201D-04 -0.10596356D-04  0.10413818D-04
  0.79846554D-05  0.39849026D-05 -0.95061759D-08 -0.72887327D-08 -0.36375885D-08
  0.18175211D-03  0.78175792D-04  0.91951093D-04  0.16312453D-07 -0.94317244D-05
  0.21616479D-04 -0.28015842D-04 -0.42564740D-05  0.72138969D-08  0.11092911D-07
  0.57438715D-05  0.10596321D-04  0.17105748D-04  0.22266602D-04  0.19000131D-04
  0.65602888D-05 -0.73971491D-05 -0.34093392D-05  0.95601431D-05  0.18563239D-04
  0.14233114D-04  0.71033215D-05 -0.72453436D-05 -0.55552699D-05 -0.27724690D-05
 -0.43894409D-08 -0.33655449D-08 -0.16796428D-08 -0.13803718D-03  0.61470585D-04
 -0.38817116D-04 -0.42859728D-08 -0.44442744D-05  0.60900641D-05 -0.19093513D-05
  0.62024727D-05  0.29606265D-08  0.29046435D-08  0.37639612D+00  0.69437734D+00
  0.11209403D+01  0.14591312D+01  0.12450793D+01  0.42989597D+00 -0.14020343D-01
 -0.64619632D-02  0.18120019D-01  0.38270722D-04  0.29343562D-04  0.14644494D-04
 -0.20544864D-03 -0.15752499D-03 -0.78616009D-04 -0.23316182D-07 -0.17877370D-07
 -0.89220604D-08 -0.13033395D-02 -0.45546208D-04  0.18308392D-03  0.11979084D-07
 -0.76314651D-02 -0.77335217D-02 -0.77178409D-02  0.16928061D-04 -0.19776618D-08
  0.14211964D-07  0.63522866D-04  0.11718728D-03  0.18917661D-03  0.24625174D-03
  0.21012705D-03  0.72551822D-04 -0.11559753D-04 -0.53278794D-05  0.14939930D-04
 -0.42791981D-04 -0.32810177D-04 -0.16374578D-04 -0.72599814D-04 -0.55664932D-04
 -0.27780702D-04  0.19430772D-08  0.14898283D-08  0.74352875D-09 -0.37985440D-03
  0.11322321D-03 -0.87342665D-04  0.22538317D-08  0.21658440D-04 -0.63594755D-05
 -0.54035062D-05 -0.17710896D-04  0.25233010D-07 -0.52929900D-09  0.72915073D-02
  0.13451407D-01  0.21714742D-01  0.28266142D-01  0.24119550D-01  0.83279011D-02
 -0.12535749D-03 -0.57777152D-04  0.16201317D-03 -0.22732417D-03 -0.17429775D-03
 -0.86986794D-04 -0.22024752D-03 -0.16887183D-03 -0.84278879D-04 -0.19037461D-07
 -0.14596717D-07 -0.72847850D-08  0.67255617D-03  0.31762217D-03 -0.77378785D-05
  0.29461172D-07 -0.32072394D-03 -0.40521361D-03 -0.29317100D-03 -0.82387144D-04
  0.13390318D-07  0.34928011D-08  0.37625449D+00  0.69411606D+00  0.11205185D+01
  0.14585822D+01  0.12446108D+01  0.42973421D+00 -0.14014886D-01 -0.64594483D-02
  0.18112967D-01 -0.38534789D-04 -0.29546032D-04 -0.14745541D-04 -0.20534289D-03
 -0.15744391D-03 -0.78575544D-04  0.24572742D-07  0.18840820D-07  0.94028896D-08
 -0.13016662D-02  0.45826639D-04  0.18268305D-03 -0.13299467D-07 -0.76288278D-02
 -0.77307496D-02 -0.77150814D-02 -0.16957430D-04 -0.54286931D-09 -0.16836902D-07
  0.63903294D-04  0.11788910D-03  0.19030956D-03  0.24772650D-03  0.21138547D-03
  0.72986323D-04  0.28413319D-04  0.13095673D-04 -0.36721633D-04  0.13030885D-04
  0.99912559D-05  0.49863369D-05 -0.46355107D-04 -0.35542156D-04 -0.17738027D-04
  0.10051282D-08  0.77066855D-09  0.38461762D-09  0.36414335D-04  0.88444225D-04
  0.12518623D-03 -0.11591875D-07  0.75726034D-04  0.15908814D-04 -0.21474965D-04
  0.32261077D-04 -0.21018281D-08  0.75976833D-08 -0.13839012D-04 -0.23473584D-04
 -0.26723846D-04 -0.34837750D-04 -0.70049082D-05 -0.12922688D-04 -0.20861225D-04
 -0.27155116D-04 -0.23171510D-04 -0.80005656D-05  0.25583899D-04  0.11791596D-04
 -0.33064865D-04  0.26349035D-05  0.20202769D-05  0.10082597D-05 -0.99482264D-05
 -0.76276690D-05 -0.38067414D-05  0.71874088D-08  0.55108492D-08  0.27503000D-08
  0.18462972D-03  0.73829041D-04  0.52808547D-04 -0.51551965D-08  0.12206314D-04
 -0.10030333D-04 -0.23251208D-04  0.13819773D-04 -0.22299488D-08 -0.19615669D-09
  0.57483339D-05  0.10604554D-04  0.17119038D-04  0.22283900D-04  0.19014893D-04
  0.65653854D-05 -0.74048024D-05 -0.34128667D-05  0.95700344D-05 -0.18565249D-04
 -0.14234655D-04 -0.71040905D-05 -0.72334574D-05 -0.55461563D-05 -0.27679207D-05
  0.45348786D-08  0.34770573D-08  0.17352953D-08 -0.13807043D-03 -0.61479048D-04
 -0.38848007D-04  0.43892305D-08 -0.44499801D-05  0.60898264D-05 -0.19011206D-05
 -0.61959950D-05  0.21437323D-08 -0.26676814D-08 -0.75713919D-05 -0.13967740D-04
 -0.22548263D-04 -0.29351138D-04 -0.25045379D-04 -0.86475676D-05  0.32285885D-04
  0.14880535D-04 -0.41726574D-04  0.27703177D-04  0.21241039D-04  0.10600767D-04
  0.10439303D-04  0.80041953D-05  0.39946544D-05  0.74127255D-08  0.56836078D-08
  0.28365186D-08  0.18193511D-03 -0.78148196D-04  0.92013143D-04 -0.13791884D-07
 -0.94164884D-05  0.21624175D-04 -0.28011012D-04  0.42659189D-05  0.62637314D-08
 -0.10148113D-07 -0.62256070D-04 -0.10559808D-03 -0.12021968D-03  0.17559140D-03
 -0.61767515D-06 -0.10476940D-05 -0.11927625D-05  0.23606239D-04 -0.13836592D-04
 -0.23469479D-04 -0.26719172D-04 -0.34824825D-04  0.60581064D-05  0.10275695D-04
  0.11698516D-04  0.39832400D-04 -0.27947655D-05 -0.47404513D-05 -0.53968363D-05
 -0.14373471D-04 -0.62224998D-04 -0.10554537D-03 -0.12015968D-03  0.17562044D-03
 -0.61836271D-06 -0.10488602D-05 -0.11940903D-05  0.23605299D-04 -0.27973775D-05
 -0.47448817D-05 -0.54018801D-05 -0.14383888D-04  0.60560744D-05  0.10272248D-04
  0.11694592D-04  0.39842290D-04
MO    2     MO 0.0        OCC NO =    1.0000000  ORB. ENERGY =  -10.380618
 -0.25852730D-05 -0.47693238D-05 -0.76991675D-05 -0.10022028D-04 -0.85518150D-05
 -0.29527362D-05  0.27488818D-05  0.12669571D-05 -0.35526799D-05 -0.31794245D-04
 -0.24377810D-04 -0.12166236D-04  0.24372922D-04  0.18687611D-04  0.93264274D-05
  0.56979485D-08  0.43688255D-08  0.21803501D-08  0.20220831D-03 -0.46906986D-04
  0.16622551D-04  0.40909777D-11 -0.15460272D-04  0.35008533D-04  0.47749715D-05
 -0.36313861D-05  0.22117180D-09  0.80925051D-08 -0.82112536D-04 -0.15148160D-03
 -0.24453826D-03 -0.31831616D-03 -0.27161976D-03 -0.93783775D-04 -0.24369372D-04
 -0.11231821D-04  0.31495199D-04  0.84911834D-04  0.65105008D-04  0.32491962D-04
  0.11358405D-04  0.87089042D-05  0.43463536D-05 -0.63394353D-08 -0.48606769D-08
 -0.24258184D-08 -0.46964436D-03  0.86941603D-04  0.14955210D-03  0.14234245D-07
 -0.59721512D-04 -0.62187055D-04  0.10695261D-04 -0.28418260D-04  0.36112676D-08
 -0.12764692D-08 -0.78866730D-02 -0.14549372D-01 -0.23487197D-01 -0.30573352D-01
 -0.26088297D-01 -0.90076620D-02  0.79116470D-04  0.36464709D-04 -0.10225085D-03
 -0.21591920D-03 -0.16555314D-03 -0.82622622D-04  0.28301153D-03  0.21699529D-03
  0.10829586D-03  0.79737143D-08  0.61137384D-08  0.30511839D-08 -0.18453715D-02
  0.10396180D-02 -0.43345520D-03  0.46716606D-07  0.38787005D-03  0.49774263D-03
  0.36473930D-03 -0.11256160D-03 -0.47289656D-08  0.21332333D-07 -0.30362239D-03
 -0.56012403D-03 -0.90421386D-03 -0.11770178D-02 -0.10043514D-02 -0.34677840D-03
  0.86322821D-04  0.39786109D-04 -0.11156440D-03  0.52471617D-04  0.40231908D-04
  0.20078542D-04 -0.65640998D-04 -0.50329354D-04 -0.25117875D-04 -0.67110062D-08
 -0.51455739D-08 -0.25680020D-08  0.89460930D-03 -0.53670465D-03  0.68562345D-03
  0.43666115D-07 -0.18374457D-04 -0.28479976D-04 -0.57679008D-04 -0.11093348D-04
 -0.85155224D-08  0.15868176D-07  0.27070676D-05  0.49940112D-05  0.80618825D-05
  0.10494176D-04  0.89546991D-05  0.30918424D-05  0.49028160D-05  0.22597034D-05
 -0.63364443D-05 -0.30949670D-04 -0.23730244D-04 -0.11843055D-04  0.68429273D-04
  0.52467226D-04  0.26184823D-04  0.15037984D-07  0.11530173D-07  0.57543642D-08
  0.48650897D-03 -0.77804966D-04  0.16697233D-03  0.32320516D-07  0.40648837D-04
  0.20793642D-04  0.13041909D-04 -0.26178249D-04 -0.15054301D-07  0.22939361D-07
  0.12435600D-04  0.22941253D-04  0.37034296D-04  0.48207650D-04  0.41135675D-04
  0.14203160D-04 -0.20306479D-04 -0.93592376D-05  0.26244279D-04  0.54748081D-05
  0.41977356D-05  0.20949642D-05  0.31645107D-04  0.24263461D-04  0.12109167D-04
  0.95659877D-08  0.73345926D-08  0.36604758D-08 -0.84855065D-04  0.19555377D-04
 -0.82826589D-04 -0.14578598D-07 -0.15237129D-04 -0.61256649D-06  0.21927864D-04
 -0.16834979D-04 -0.10448880D-08 -0.24377398D-08 -0.37646726D+00 -0.69450858D+00
 -0.11211522D+01 -0.14594070D+01 -0.12453147D+01 -0.42997722D+00  0.14498319D-01
  0.66822622D-02 -0.18737761D-01  0.70950092D-03  0.54400031D-03  0.27149428D-03
  0.28162849D-03  0.21593486D-03  0.10776663D-03  0.82774195D-07  0.63466002D-07
  0.31673983D-07  0.44469901D-02 -0.74721379D-03 -0.10654195D-02 -0.88542217D-07
  0.70021371D-02  0.73572600D-02  0.73361365D-02  0.82987456D-04 -0.64676269D-07
  0.25672054D-07  0.30367385D-03  0.56021896D-03  0.90436710D-03  0.11772173D-02
  0.10045216D-02  0.34683717D-03 -0.86328156D-04 -0.39788568D-04  0.11157130D-03
  0.52455354D-04  0.40219439D-04  0.20072319D-04  0.65613820D-04  0.50308516D-04
  0.25107475D-04 -0.36481375D-08 -0.27971604D-08 -0.13959791D-08 -0.89476152D-03
 -0.53666189D-03 -0.68565506D-03  0.41890449D-07  0.18382119D-04  0.28477622D-04
  0.57676373D-04 -0.11100638D-04  0.25309860D-08  0.15353061D-07  0.78897566D-02
  0.14555060D-01  0.23496380D-01  0.30585306D-01  0.26098497D-01  0.90111838D-02
 -0.79175802D-04 -0.36492055D-04  0.10232753D-03 -0.21600482D-03 -0.16561879D-03
 -0.82655385D-04 -0.28309524D-03 -0.21705947D-03 -0.10832789D-03  0.12116364D-07
  0.92900591D-08  0.46363906D-08  0.18456333D-02  0.10397378D-02  0.43345253D-03
  0.33707392D-07 -0.38799713D-03 -0.49790216D-03 -0.36485663D-03 -0.11259205D-03
  0.24238504D-08  0.29091347D-07  0.37660879D+00  0.69476968D+00  0.11215737D+01
  0.14599557D+01  0.12457828D+01  0.43013888D+00 -0.14503590D-01 -0.66846913D-02
  0.18744572D-01  0.70948837D-03  0.54399068D-03  0.27148948D-03 -0.28170552D-03
 -0.21599393D-03 -0.10779611D-03  0.84929706D-07  0.65118712D-07  0.32498801D-07
 -0.44474820D-02 -0.74719720D-03  0.10654892D-02 -0.10004851D-06 -0.70050051D-02
 -0.73601641D-02 -0.73390386D-02  0.82982441D-04  0.64640293D-07  0.22061010D-07
  0.82134373D-04  0.15152188D-03  0.24460330D-03  0.31840081D-03  0.27169199D-03
  0.93808716D-04  0.24380315D-04  0.11236865D-04 -0.31509343D-04  0.84916014D-04
  0.65108214D-04  0.32493562D-04 -0.11375849D-04 -0.87222796D-05 -0.43530288D-05
 -0.14006657D-07 -0.10739416D-07 -0.53597212D-08  0.46965632D-03  0.86974157D-04
 -0.14950482D-03  0.12071206D-07  0.59749225D-04  0.62192829D-04 -0.10703409D-04
 -0.28405871D-04 -0.98160446D-08  0.14563653D-08  0.63028227D-05  0.10690780D-04
  0.12171075D-04  0.34017342D-04  0.25825760D-05  0.47643485D-05  0.76911357D-05
  0.10011573D-04  0.85428937D-05  0.29496559D-05 -0.27390414D-05 -0.12624217D-05
  0.35399621D-05 -0.31793016D-04 -0.24376868D-04 -0.12165766D-04 -0.24376887D-04
 -0.18690651D-04 -0.93279447D-05  0.73561626D-08  0.56402389D-08  0.28148745D-08
 -0.20213812D-03 -0.46878990D-04 -0.16603325D-04 -0.25234725D-09  0.15465091D-04
 -0.35012122D-04 -0.47838171D-05 -0.36259682D-05 -0.28306794D-08  0.66978674D-08
 -0.12433325D-04 -0.22937058D-04 -0.37027523D-04 -0.48198833D-04 -0.41128151D-04
 -0.14200562D-04  0.20303608D-04  0.93579143D-05 -0.26240568D-04  0.54681463D-05
  0.41926278D-05  0.20924151D-05 -0.31647929D-04 -0.24265625D-04 -0.12110247D-04
  0.90492190D-08  0.69383672D-08  0.34627315D-08  0.84803591D-04  0.19533425D-04
  0.82811257D-04 -0.13783287D-07  0.15235535D-04  0.61470585D-06 -0.21928526D-04
 -0.16837271D-04 -0.13958410D-08 -0.17199245D-08 -0.27096632D-05 -0.49987996D-05
 -0.80696124D-05 -0.10504238D-04 -0.89632850D-05 -0.30948069D-05 -0.48909323D-05
 -0.22542262D-05  0.63210856D-05 -0.30939162D-04 -0.23722187D-04 -0.11839034D-04
 -0.68425436D-04 -0.52464285D-04 -0.26183355D-04  0.14183707D-07  0.10875167D-07
  0.54274706D-08 -0.48643734D-03 -0.77832061D-04 -0.16693691D-03  0.32079127D-07
 -0.40652514D-04 -0.20785753D-04 -0.13052208D-04 -0.26176534D-04  0.15806454D-07
  0.23637016D-07  0.82782314D-04  0.14041447D-03  0.15985691D-03  0.77649787D-04
 -0.19401412D-05 -0.32908468D-05 -0.37465127D-05 -0.27250503D-05 -0.63080466D-05
 -0.10699641D-04 -0.12181163D-04 -0.34030625D-04 -0.54751782D-05 -0.92869385D-05
 -0.10572851D-04  0.25719225D-04 -0.68404717D-05 -0.11602735D-04 -0.13209303D-04
 -0.27374607D-04 -0.82805806D-04 -0.14045432D-03 -0.15990228D-03 -0.77584025D-04
  0.19398809D-05  0.32904052D-05  0.37460100D-05  0.27339586D-05  0.68393853D-05
  0.11600892D-04  0.13207205D-04  0.27369151D-04  0.54774812D-05  0.92908449D-05
  0.10577299D-04 -0.25704389D-04
MO    3     MO 0.0        OCC NO =    1.0000000  ORB. ENERGY =  -10.371390
 -0.16168344D-04 -0.29827437D-04 -0.48150731D-04 -0.62677945D-04 -0.53483204D-04
 -0.18466465D-04  0.33456141D-04  0.15419905D-04 -0.43239022D-04  0.30420735D-04
  0.23324690D-04  0.11640655D-04 -0.11334963D-04 -0.86909308D-05 -0.43373836D-05
 -0.81070899D-09 -0.62160023D-09 -0.31022208D-09  0.14143860D-03 -0.59605340D-04
  0.98748540D-05 -0.32727564D-08  0.44675347D-05  0.11881527D-04 -0.39843243D-04
 -0.94878026D-05  0.34956316D-08  0.16925842D-07  0.23595532D-02  0.43529148D-02
  0.70269542D-02  0.91470065D-02  0.78051572D-02  0.26949332D-02 -0.36537998D-04
 -0.16840330D-04  0.47222043D-04  0.81201140D-04  0.62259884D-04  0.31072046D-04
  0.20856283D-04  0.15991275D-04  0.79807669D-05  0.12764136D-08  0.97867301D-09
  0.48842642D-09  0.87081838D-04 -0.73641284D-04  0.64231299D-04  0.10008884D-08
 -0.79757964D-04 -0.66117796D-04 -0.87812651D-04  0.31192714D-04  0.12629127D-07
  0.20704901D-08  0.10343202D+00  0.19081188D+00  0.30802955D+00  0.40096294D+00
  0.34214241D+00  0.11813355D+00 -0.37380214D-02 -0.17228507D-02  0.48310531D-02
  0.18476321D-03  0.14166471D-03  0.70700620D-04  0.26469054D-03  0.20294792D-03
  0.10128523D-03 -0.15793710D-07 -0.12109615D-07 -0.60435467D-08  0.48246132D-04
 -0.14021083D-03 -0.25852337D-03 -0.98682636D-08 -0.21914145D-02 -0.22617938D-02
 -0.21908711D-02 -0.13305892D-03  0.19197171D-08 -0.13216487D-07  0.36166996D+00
  0.66721046D+00  0.10770846D+01  0.14020441D+01  0.11963667D+01  0.41307668D+00
 -0.13411624D-01 -0.61814052D-02  0.17333305D-01  0.22795411D-03  0.17478075D-03
  0.87227844D-04  0.37836057D-04  0.29010289D-04  0.14478167D-04 -0.14831726D-07
 -0.11372027D-07 -0.56754385D-08 -0.15872585D-02 -0.23620064D-03 -0.21547015D-04
  0.12937606D-07 -0.74022588D-02 -0.72019035D-02 -0.73032883D-02 -0.93178825D-04
 -0.16701374D-07  0.41828106D-07  0.62970133D-02  0.11616760D-01  0.18753052D-01
  0.24410902D-01  0.20829867D-01  0.71920525D-02 -0.98790839D-04 -0.45532608D-04
  0.12767818D-03  0.15956448D-03  0.12234392D-03  0.61058192D-04 -0.26096405D-03
 -0.20009068D-03 -0.99859274D-04 -0.13267553D-08 -0.10172718D-08 -0.50768993D-09
  0.57699734D-03 -0.59731909D-04  0.21067269D-03  0.12591402D-07 -0.31819253D-03
 -0.34524822D-03 -0.25183957D-03  0.13923875D-03  0.21867773D-07 -0.28889962D-07
  0.14591138D-03  0.26917801D-03  0.43453676D-03  0.56563775D-03  0.48265972D-03
  0.16665080D-03  0.13701501D-04  0.63150095D-05 -0.17707946D-04  0.19837017D-04
  0.15209767D-04  0.75907395D-05 -0.48824791D-05 -0.37435753D-05 -0.18683064D-05
 -0.11230124D-07 -0.86105466D-08 -0.42972662D-08 -0.11993054D-03  0.18711228D-04
 -0.56552704D-04  0.85903448D-09  0.61568971D-04  0.18729117D-04 -0.14929631D-04
 -0.38589249D-04 -0.15167835D-07  0.12178518D-07 -0.21013866D-02 -0.38766479D-02
 -0.62581118D-02 -0.81462020D-02 -0.69511690D-02 -0.24000716D-02  0.13553536D-03
  0.62468123D-04 -0.17516714D-03 -0.25419983D-04 -0.19490431D-04 -0.97270911D-05
  0.12399366D-03  0.95070471D-04  0.47446828D-04  0.51776047D-08  0.39698588D-08
  0.19812378D-08  0.16409854D-03  0.50846550D-04 -0.34254366D-04 -0.30068700D-08
  0.25041440D-04 -0.42868121D-05 -0.16014040D-04  0.41919548D-04  0.10813830D-07
  0.98031778D-08  0.36204063D+00  0.66789427D+00  0.10781884D+01  0.14034810D+01
  0.11975929D+01  0.41350004D+00 -0.13425627D-01 -0.61878594D-02  0.17351404D-01