 Generated by Multiwfn
GAUSSIAN             47 MOL ORBITALS    432 PRIMITIVES       24 NUCLEI
  C    1    (CENTRE  1)   6.70429972 -0.55852345  0.00009177  CHARGE =  6.0
  C    2    (CENTRE  2)   5.34284790  1.65348911  0.00027233  CHARGE =  6.0
  C    3    (CENTRE  3)   2.67903286  1.63027556  0.00015157  CHARGE =  6.0
  C    4    (CENTRE  4)   1.37305537 -0.71556383 -0.00003581  CHARGE =  6.0
  C    5    (CENTRE  5)   2.82490912 -2.94942568 -0.00032312  CHARGE =  6.0
  C    6    (CENTRE  6)   5.42590594 -2.87952126 -0.00026369  CHARGE =  6.0
  C    7    (CENTRE  7)   1.27852267  3.94311689  0.00010573  CHARGE =  6.0
  C    8    (CENTRE  8)  -1.37305806 -0.71555861  0.00001064  CHARGE =  6.0
  C    9    (CENTRE  9)  -2.67903027  1.63027437 -0.00016189  CHARGE =  6.0
  C   10    (CENTRE 10)  -1.27852332  3.94311631 -0.00014426  CHARGE =  6.0
  C   11    (CENTRE 11)  -5.34285167  1.65348886 -0.00022764  CHARGE =  6.0
  H   12    (CENTRE 12)  -6.30625805  3.45871137 -0.00040716  CHARGE =  1.0
  C   13    (CENTRE 13)  -6.70429828 -0.55852056 -0.00004199  CHARGE =  6.0
  C   14    (CENTRE 14)  -5.42590167 -2.87952517  0.00026751  CHARGE =  6.0
  C   15    (CENTRE 15)  -2.82491172 -2.94942884  0.00029449  CHARGE =  6.0
  H   16    (CENTRE 16)   2.31769426  5.70559384  0.00023572  CHARGE =  1.0
  H   17    (CENTRE 17)   8.74791230 -0.51421808  0.00019086  CHARGE =  1.0
  H   18    (CENTRE 18)   6.30625655  3.45871077  0.00047842  CHARGE =  1.0
  H   19    (CENTRE 19)   1.89586667 -4.76640256 -0.00070576  CHARGE =  1.0
  H   20    (CENTRE 20)   6.48739916 -4.62676822 -0.00053925  CHARGE =  1.0
  H   21    (CENTRE 21)  -2.31769148  5.70559522 -0.00030544  CHARGE =  1.0
  H   22    (CENTRE 22)  -8.74791129 -0.51422623 -0.00008341  CHARGE =  1.0
  H   23    (CENTRE 23)  -6.48740988 -4.62676274  0.00052680  CHARGE =  1.0
  H   24    (CENTRE 24)  -1.89584992 -4.76639562  0.00063523  CHARGE =  1.0
CENTRE ASSIGNMENTS    1  1  1  1  1  1  1  1  1  1  1  1  1  1  1  1  1  1  1  1
CENTRE ASSIGNMENTS    1  1  1  1  1  1  1  1  2  2  2  2  2  2  2  2  2  2  2  2
CENTRE ASSIGNMENTS    2  2  2  2  2  2  2  2  2  2  2  2  2  2  2  2  3  3  3  3
CENTRE ASSIGNMENTS    3  3  3  3  3  3  3  3  3  3  3  3  3  3  3  3  3  3  3  3
CENTRE ASSIGNMENTS    3  3  3  3  4  4  4  4  4  4  4  4  4  4  4  4  4  4  4  4
CENTRE ASSIGNMENTS    4  4  4  4  4  4  4  4  4  4  4  4  5  5  5  5  5  5  5  5
CENTRE ASSIGNMENTS    5  5  5  5  5  5  5  5  5  5  5  5  5  5  5  5  5  5  5  5
CENTRE ASSIGNMENTS    6  6  6  6  6  6  6  6  6  6  6  6  6  6  6  6  6  6  6  6
CENTRE ASSIGNMENTS    6  6  6  6  6  6  6  6  7  7  7  7  7  7  7  7  7  7  7  7
CENTRE ASSIGNMENTS    7  7  7  7  7  7  7  7  7  7  7  7  7  7  7  7  8  8  8  8
CENTRE ASSIGNMENTS    8  8  8  8  8  8  8  8  8  8  8  8  8  8  8  8  8  8  8  8
CENTRE ASSIGNMENTS    8  8  8  8  9  9  9  9  9  9  9  9  9  9  9  9  9  9  9  9
CENTRE ASSIGNMENTS    9  9  9  9  9  9  9  9  9  9  9  9 10 10 10 10 10 10 10 10
CENTRE ASSIGNMENTS   10 10 10 10 10 10 10 10 10 10 10 10 10 10 10 10 10 10 10 10
CENTRE ASSIGNMENTS   11 11 11 11 11 11 11 11 11 11 11 11 11 11 11 11 11 11 11 11
CENTRE ASSIGNMENTS   11 11 11 11 11 11 11 11 12 12 12 12 13 13 13 13 13 13 13 13
CENTRE ASSIGNMENTS   13 13 13 13 13 13 13 13 13 13 13 13 13 13 13 13 13 13 13 13
CENTRE ASSIGNMENTS   14 14 14 14 14 14 14 14 14 14 14 14 14 14 14 14 14 14 14 14
CENTRE ASSIGNMENTS   14 14 14 14 14 14 14 14 15 15 15 15 15 15 15 15 15 15 15 15
CENTRE ASSIGNMENTS   15 15 15 15 15 15 15 15 15 15 15 15 15 15 15 15 16 16 16 16
CENTRE ASSIGNMENTS   17 17 17 17 18 18 18 18 19 19 19 19 20 20 20 20 21 21 21 21
CENTRE ASSIGNMENTS   22 22 22 22 23 23 23 23 24 24 24 24
TYPE ASSIGNMENTS      1  1  1  1  1  1  1  1  1  2  2  2  3  3  3  4  4  4  1  2
TYPE ASSIGNMENTS      3  4  5  6  7  8  9 10  1  1  1  1  1  1  1  1  1  2  2  2
TYPE ASSIGNMENTS      3  3  3  4  4  4  1  2  3  4  5  6  7  8  9 10  1  1  1  1
TYPE ASSIGNMENTS      1  1  1  1  1  2  2  2  3  3  3  4  4  4  1  2  3  4  5  6
TYPE ASSIGNMENTS      7  8  9 10  1  1  1  1  1  1  1  1  1  2  2  2  3  3  3  4
TYPE ASSIGNMENTS      4  4  1  2  3  4  5  6  7  8  9 10  1  1  1  1  1  1  1  1
TYPE ASSIGNMENTS      1  2  2  2  3  3  3  4  4  4  1  2  3  4  5  6  7  8  9 10
TYPE ASSIGNMENTS      1  1  1  1  1  1  1  1  1  2  2  2  3  3  3  4  4  4  1  2
TYPE ASSIGNMENTS      3  4  5  6  7  8  9 10  1  1  1  1  1  1  1  1  1  2  2  2
TYPE ASSIGNMENTS      3  3  3  4  4  4  1  2  3  4  5  6  7  8  9 10  1  1  1  1
TYPE ASSIGNMENTS      1  1  1  1  1  2  2  2  3  3  3  4  4  4  1  2  3  4  5  6
TYPE ASSIGNMENTS      7  8  9 10  1  1  1  1  1  1  1  1  1  2  2  2  3  3  3  4
TYPE ASSIGNMENTS      4  4  1  2  3  4  5  6  7  8  9 10  1  1  1  1  1  1  1  1
TYPE ASSIGNMENTS      1  2  2  2  3  3  3  4  4  4  1  2  3  4  5  6  7  8  9 10
TYPE ASSIGNMENTS      1  1  1  1  1  1  1  1  1  2  2  2  3  3  3  4  4  4  1  2
TYPE ASSIGNMENTS      3  4  5  6  7  8  9 10  1  1  1  1  1  1  1  1  1  1  1  1
TYPE ASSIGNMENTS      1  2  2  2  3  3  3  4  4  4  1  2  3  4  5  6  7  8  9 10
TYPE ASSIGNMENTS      1  1  1  1  1  1  1  1  1  2  2  2  3  3  3  4  4  4  1  2
TYPE ASSIGNMENTS      3  4  5  6  7  8  9 10  1  1  1  1  1  1  1  1  1  2  2  2
TYPE ASSIGNMENTS      3  3  3  4  4  4  1  2  3  4  5  6  7  8  9 10  1  1  1  1
TYPE ASSIGNMENTS      1  1  1  1  1  1  1  1  1  1  1  1  1  1  1  1  1  1  1  1
TYPE ASSIGNMENTS      1  1  1  1  1  1  1  1  1  1  1  1
EXPONENTS  0.3047525D+04 0.4573695D+03 0.1039487D+03 0.2921016D+02 0.9286663D+01
EXPONENTS  0.3163927D+01 0.7868272D+01 0.1881289D+01 0.5442493D+00 0.7868272D+01
EXPONENTS  0.1881289D+01 0.5442493D+00 0.7868272D+01 0.1881289D+01 0.5442493D+00
EXPONENTS  0.7868272D+01 0.1881289D+01 0.5442493D+00 0.1687145D+00 0.1687145D+00
EXPONENTS  0.1687145D+00 0.1687145D+00 0.8000000D+00 0.8000000D+00 0.8000000D+00
EXPONENTS  0.8000000D+00 0.8000000D+00 0.8000000D+00 0.3047525D+04 0.4573695D+03
EXPONENTS  0.1039487D+03 0.2921016D+02 0.9286663D+01 0.3163927D+01 0.7868272D+01
EXPONENTS  0.1881289D+01 0.5442493D+00 0.7868272D+01 0.1881289D+01 0.5442493D+00
EXPONENTS  0.7868272D+01 0.1881289D+01 0.5442493D+00 0.7868272D+01 0.1881289D+01
EXPONENTS  0.5442493D+00 0.1687145D+00 0.1687145D+00 0.1687145D+00 0.1687145D+00
EXPONENTS  0.8000000D+00 0.8000000D+00 0.8000000D+00 0.8000000D+00 0.8000000D+00
EXPONENTS  0.8000000D+00 0.3047525D+04 0.4573695D+03 0.1039487D+03 0.2921016D+02
EXPONENTS  0.9286663D+01 0.3163927D+01 0.7868272D+01 0.1881289D+01 0.5442493D+00
EXPONENTS  0.7868272D+01 0.1881289D+01 0.5442493D+00 0.7868272D+01 0.1881289D+01
EXPONENTS  0.5442493D+00 0.7868272D+01 0.1881289D+01 0.5442493D+00 0.1687145D+00
EXPONENTS  0.1687145D+00 0.1687145D+00 0.1687145D+00 0.8000000D+00 0.8000000D+00
EXPONENTS  0.8000000D+00 0.8000000D+00 0.8000000D+00 0.8000000D+00 0.3047525D+04
EXPONENTS  0.4573695D+03 0.1039487D+03 0.2921016D+02 0.9286663D+01 0.3163927D+01
EXPONENTS  0.7868272D+01 0.1881289D+01 0.5442493D+00 0.7868272D+01 0.1881289D+01
EXPONENTS  0.5442493D+00 0.7868272D+01 0.1881289D+01 0.5442493D+00 0.7868272D+01
EXPONENTS  0.1881289D+01 0.5442493D+00 0.1687145D+00 0.1687145D+00 0.1687145D+00
EXPONENTS  0.1687145D+00 0.8000000D+00 0.8000000D+00 0.8000000D+00 0.8000000D+00
EXPONENTS  0.8000000D+00 0.8000000D+00 0.3047525D+04 0.4573695D+03 0.1039487D+03
EXPONENTS  0.2921016D+02 0.9286663D+01 0.3163927D+01 0.7868272D+01 0.1881289D+01
EXPONENTS  0.5442493D+00 0.7868272D+01 0.1881289D+01 0.5442493D+00 0.7868272D+01
EXPONENTS  0.1881289D+01 0.5442493D+00 0.7868272D+01 0.1881289D+01 0.5442493D+00
EXPONENTS  0.1687145D+00 0.1687145D+00 0.1687145D+00 0.1687145D+00 0.8000000D+00
EXPONENTS  0.8000000D+00 0.8000000D+00 0.8000000D+00 0.8000000D+00 0.8000000D+00
EXPONENTS  0.3047525D+04 0.4573695D+03 0.1039487D+03 0.2921016D+02 0.9286663D+01
EXPONENTS  0.3163927D+01 0.7868272D+01 0.1881289D+01 0.5442493D+00 0.7868272D+01
EXPONENTS  0.1881289D+01 0.5442493D+00 0.7868272D+01 0.1881289D+01 0.5442493D+00
EXPONENTS  0.7868272D+01 0.1881289D+01 0.5442493D+00 0.1687145D+00 0.1687145D+00
EXPONENTS  0.1687145D+00 0.1687145D+00 0.8000000D+00 0.8000000D+00 0.8000000D+00
EXPONENTS  0.8000000D+00 0.8000000D+00 0.8000000D+00 0.3047525D+04 0.4573695D+03
EXPONENTS  0.1039487D+03 0.2921016D+02 0.9286663D+01 0.3163927D+01 0.7868272D+01
EXPONENTS  0.1881289D+01 0.5442493D+00 0.7868272D+01 0.1881289D+01 0.5442493D+00
EXPONENTS  0.7868272D+01 0.1881289D+01 0.5442493D+00 0.7868272D+01 0.1881289D+01
EXPONENTS  0.5442493D+00 0.1687145D+00 0.1687145D+00 0.1687145D+00 0.1687145D+00
EXPONENTS  0.8000000D+00 0.8000000D+00 0.8000000D+00 0.8000000D+00 0.8000000D+00
EXPONENTS  0.8000000D+00 0.3047525D+04 0.4573695D+03 0.1039487D+03 0.2921016D+02
EXPONENTS  0.9286663D+01 0.3163927D+01 0.7868272D+01 0.1881289D+01 0.5442493D+00
EXPONENTS  0.7868272D+01 0.1881289D+01 0.5442493D+00 0.7868272D+01 0.1881289D+01
EXPONENTS  0.5442493D+00 0.7868272D+01 0.1881289D+01 0.5442493D+00 0.1687145D+00
EXPONENTS  0.1687145D+00 0.1687145D+00 0.1687145D+00 0.8000000D+00 0.8000000D+00
EXPONENTS  0.8000000D+00 0.8000000D+00 0.8000000D+00 0.8000000D+00 0.3047525D+04
EXPONENTS  0.4573695D+03 0.1039487D+03 0.2921016D+02 0.9286663D+01 0.3163927D+01
EXPONENTS  0.7868272D+01 0.1881289D+01 0.5442493D+00 0.7868272D+01 0.1881289D+01
EXPONENTS  0.5442493D+00 0.7868272D+01 0.1881289D+01 0.5442493D+00 0.7868272D+01
EXPONENTS  0.1881289D+01 0.5442493D+00 0.1687145D+00 0.1687145D+00 0.1687145D+00
EXPONENTS  0.1687145D+00 0.8000000D+00 0.8000000D+00 0.8000000D+00 0.8000000D+00
EXPONENTS  0.8000000D+00 0.8000000D+00 0.3047525D+04 0.4573695D+03 0.1039487D+03
EXPONENTS  0.2921016D+02 0.9286663D+01 0.3163927D+01 0.7868272D+01 0.1881289D+01
EXPONENTS  0.5442493D+00 0.7868272D+01 0.1881289D+01 0.5442493D+00 0.7868272D+01
EXPONENTS  0.1881289D+01 0.5442493D+00 0.7868272D+01 0.1881289D+01 0.5442493D+00
EXPONENTS  0.1687145D+00 0.1687145D+00 0.1687145D+00 0.1687145D+00 0.8000000D+00
EXPONENTS  0.8000000D+00 0.8000000D+00 0.8000000D+00 0.8000000D+00 0.8000000D+00
EXPONENTS  0.3047525D+04 0.4573695D+03 0.1039487D+03 0.2921016D+02 0.9286663D+01
EXPONENTS  0.3163927D+01 0.7868272D+01 0.1881289D+01 0.5442493D+00 0.7868272D+01
EXPONENTS  0.1881289D+01 0.5442493D+00 0.7868272D+01 0.1881289D+01 0.5442493D+00
EXPONENTS  0.7868272D+01 0.1881289D+01 0.5442493D+00 0.1687145D+00 0.1687145D+00
EXPONENTS  0.1687145D+00 0.1687145D+00 0.8000000D+00 0.8000000D+00 0.8000000D+00
EXPONENTS  0.8000000D+00 0.8000000D+00 0.8000000D+00 0.1873114D+02 0.2825394D+01
EXPONENTS  0.6401217D+00 0.1612778D+00 0.3047525D+04 0.4573695D+03 0.1039487D+03
EXPONENTS  0.2921016D+02 0.9286663D+01 0.3163927D+01 0.7868272D+01 0.1881289D+01
EXPONENTS  0.5442493D+00 0.7868272D+01 0.1881289D+01 0.5442493D+00 0.7868272D+01
EXPONENTS  0.1881289D+01 0.5442493D+00 0.7868272D+01 0.1881289D+01 0.5442493D+00
EXPONENTS  0.1687145D+00 0.1687145D+00 0.1687145D+00 0.1687145D+00 0.8000000D+00
EXPONENTS  0.8000000D+00 0.8000000D+00 0.8000000D+00 0.8000000D+00 0.8000000D+00
EXPONENTS  0.3047525D+04 0.4573695D+03 0.1039487D+03 0.2921016D+02 0.9286663D+01
EXPONENTS  0.3163927D+01 0.7868272D+01 0.1881289D+01 0.5442493D+00 0.7868272D+01
EXPONENTS  0.1881289D+01 0.5442493D+00 0.7868272D+01 0.1881289D+01 0.5442493D+00
EXPONENTS  0.7868272D+01 0.1881289D+01 0.5442493D+00 0.1687145D+00 0.1687145D+00
EXPONENTS  0.1687145D+00 0.1687145D+00 0.8000000D+00 0.8000000D+00 0.8000000D+00
EXPONENTS  0.8000000D+00 0.8000000D+00 0.8000000D+00 0.3047525D+04 0.4573695D+03
EXPONENTS  0.1039487D+03 0.2921016D+02 0.9286663D+01 0.3163927D+01 0.7868272D+01
EXPONENTS  0.1881289D+01 0.5442493D+00 0.7868272D+01 0.1881289D+01 0.5442493D+00
EXPONENTS  0.7868272D+01 0.1881289D+01 0.5442493D+00 0.7868272D+01 0.1881289D+01
EXPONENTS  0.5442493D+00 0.1687145D+00 0.1687145D+00 0.1687145D+00 0.1687145D+00
EXPONENTS  0.8000000D+00 0.8000000D+00 0.8000000D+00 0.8000000D+00 0.8000000D+00
EXPONENTS  0.8000000D+00 0.1873114D+02 0.2825394D+01 0.6401217D+00 0.1612778D+00
EXPONENTS  0.1873114D+02 0.2825394D+01 0.6401217D+00 0.1612778D+00 0.1873114D+02
EXPONENTS  0.2825394D+01 0.6401217D+00 0.1612778D+00 0.1873114D+02 0.2825394D+01
EXPONENTS  0.6401217D+00 0.1612778D+00 0.1873114D+02 0.2825394D+01 0.6401217D+00
EXPONENTS  0.1612778D+00 0.1873114D+02 0.2825394D+01 0.6401217D+00 0.1612778D+00
EXPONENTS  0.1873114D+02 0.2825394D+01 0.6401217D+00 0.1612778D+00 0.1873114D+02
EXPONENTS  0.2825394D+01 0.6401217D+00 0.1612778D+00 0.1873114D+02 0.2825394D+01
EXPONENTS  0.6401217D+00 0.1612778D+00
MO    1     MO 0.0        OCC NO =    2.0000000  ORB. ENERGY =  -10.197264
 -0.83623394D-04 -0.15426883D-03 -0.24903773D-03 -0.32417313D-03 -0.27661752D-03
 -0.95509382D-04  0.41963539D-04  0.19340957D-04 -0.54234061D-04  0.27859290D-04
  0.21360737D-04  0.10660505D-04 -0.45233676D-05 -0.34682314D-05 -0.17308905D-05
 -0.20910444D-08 -0.16032802D-08 -0.80014918D-09  0.24314766D-03 -0.10895365D-03
  0.92601946D-05 -0.55459263D-08 -0.42191909D-05  0.50166898D-05 -0.45190703D-04
 -0.57992117D-06  0.40452801D-08  0.16913209D-07  0.68915413D-03  0.12713548D-02
  0.20523609D-02  0.26715640D-02  0.22796504D-02  0.78710851D-03 -0.42028542D-05
 -0.19370917D-05  0.54318073D-05  0.22496607D-04  0.17248971D-04  0.86084455D-05
  0.94505188D-05  0.72460584D-05  0.36162910D-05 -0.25910808D-08 -0.19866764D-08
 -0.99149078D-09 -0.11283835D-03 -0.14158993D-04  0.11853635D-03  0.10045674D-07
  0.31731732D-04  0.38735849D-05 -0.23873588D-04  0.27515438D-04  0.14322290D-07
 -0.15087096D-08  0.29452020D-01  0.54333225D-01  0.87710672D-01  0.11417323D+00
  0.97424227D-01  0.33638244D-01 -0.95560510D-03 -0.44043752D-03  0.12350328D-02
  0.18788716D-03  0.14405996D-03  0.71896017D-04  0.28317598D-03  0.21712138D-03
  0.10835879D-03 -0.52557361D-08 -0.40297651D-08 -0.20111352D-08  0.59318419D-03
 -0.12284735D-03 -0.33610775D-03 -0.18840857D-07 -0.77989656D-03 -0.84384450D-03
 -0.72697448D-03 -0.12076466D-03 -0.19559644D-08 -0.12561280D-07  0.37527888D+00
  0.69231625D+00  0.11176131D+01  0.14548002D+01  0.12413836D+01  0.42861993D+00
 -0.13926740D-01 -0.64188219D-02  0.17999047D-01  0.30721853D-03  0.23555568D-03
  0.11755879D-03  0.23159701D-04  0.17757390D-04  0.88621819D-05 -0.20025973D-07
 -0.15354646D-07 -0.76630443D-08 -0.18809274D-02 -0.32222321D-03 -0.67469166D-04
  0.13399527D-07 -0.76131495D-02 -0.73772333D-02 -0.75369122D-02 -0.82883264D-04
 -0.13231435D-07  0.62686666D-07  0.89491054D-02  0.16509352D-01  0.26651213D-01
  0.34691961D-01  0.29602713D-01  0.10221105D-01 -0.19187859D-03 -0.88436665D-04
  0.24798564D-03  0.16835444D-03  0.12908351D-03  0.64421716D-04 -0.27761528D-03
 -0.21285779D-03 -0.10623096D-03 -0.43865021D-08 -0.33632916D-08 -0.16785182D-08
  0.67881056D-03 -0.31295756D-04  0.25631869D-03  0.18376736D-07 -0.39389707D-03
 -0.43175142D-03 -0.31361205D-03  0.16791211D-03  0.29598331D-07 -0.35400979D-07
  0.26033574D-03  0.48026860D-03  0.77530244D-03  0.10092134D-02  0.86116363D-03
  0.29733911D-03 -0.48547033D-06 -0.22375283D-06  0.62742629D-06  0.19305313D-04
  0.14802089D-04  0.73872800D-05 -0.26004388D-05 -0.19938516D-05 -0.99507167D-06
 -0.13431201D-07 -0.10298193D-07 -0.51395200D-08 -0.21616139D-03  0.43248245D-04
 -0.93810035D-04 -0.29512662D-08  0.62397934D-04  0.18130224D-04 -0.63525996D-05
 -0.41229755D-04 -0.16724913D-07  0.10965314D-07  0.52250757D-03  0.96392444D-03
  0.15560729D-02  0.20255446D-02  0.17284009D-02  0.59677528D-03  0.17141532D-04
  0.79005165D-05 -0.22153873D-04 -0.17146638D-05 -0.13146955D-05 -0.65612518D-06
  0.58856666D-04  0.45127558D-04  0.22521814D-04  0.64467857D-08  0.49429864D-08
  0.24668966D-08  0.86401349D-04  0.43157493D-04 -0.76481761D-05 -0.64963705D-09
  0.96908809D-05  0.89183232D-05 -0.44787214D-04 -0.66017424D-05  0.11304152D-07
  0.68986013D-08  0.37511722D+00  0.69201802D+00  0.11171317D+01  0.14541735D+01
  0.12408489D+01  0.42843530D+00 -0.13920627D-01 -0.64160040D-02  0.17991145D-01
 -0.30737092D-03 -0.23567253D-03 -0.11761711D-03  0.23143739D-04  0.17745151D-04
  0.88560741D-05  0.22028386D-07  0.16889969D-07  0.84292784D-08 -0.18793324D-02
  0.32230510D-03 -0.67322130D-04 -0.15356453D-07 -0.76102358D-02 -0.73742256D-02
 -0.75338072D-02  0.82822742D-04 -0.12320367D-07 -0.61529527D-07  0.29439778D-01
  0.54310642D-01  0.87674215D-01  0.11412578D+00  0.97383733D-01  0.33624263D-01
 -0.95521864D-03 -0.44025940D-03  0.12345333D-02 -0.18782003D-03 -0.14400848D-03
 -0.71870327D-04  0.28305011D-03  0.21702487D-03  0.10831062D-03  0.66921793D-08
  0.51311386D-08  0.25607978D-08  0.59265890D-03  0.12267623D-03 -0.33590662D-03
  0.17886273D-07 -0.77953942D-03 -0.84344308D-03 -0.72665810D-03  0.12070022D-03
 -0.83505862D-09  0.10044864D-07  0.52222169D-03  0.96339705D-03  0.15552216D-02
  0.20244364D-02  0.17274552D-02  0.59644877D-03  0.17166668D-04  0.79121016D-05
 -0.22186359D-04  0.17088111D-05  0.13102079D-05  0.65388559D-06  0.58851213D-04
  0.45123377D-04  0.22519728D-04 -0.38793960D-08 -0.29744748D-08 -0.14844714D-08
  0.86595599D-04 -0.43053403D-04 -0.77272870D-05  0.45039936D-09  0.96782190D-05
  0.89067273D-05 -0.44801530D-04  0.65943971D-05  0.97779250D-08 -0.63591572D-08
  0.68884815D-03  0.12707903D-02  0.20514496D-02  0.26703779D-02  0.22786383D-02
  0.78675903D-03 -0.41840325D-05 -0.19284168D-05  0.54074819D-05 -0.22499669D-04
 -0.17251319D-04 -0.86096172D-05  0.94501742D-05  0.72457942D-05  0.36161591D-05
  0.15009660D-08  0.11508456D-08  0.57435259D-09 -0.11276733D-03  0.14158712D-04
  0.11843924D-03 -0.93353350D-08  0.31712524D-04  0.38650655D-05 -0.23881914D-04
 -0.27524044D-04  0.11749038D-07 -0.42266618D-09 -0.78587622D-05 -0.13329948D-04
 -0.15175675D-04 -0.24144374D-04 -0.83582079D-04 -0.15419261D-03 -0.24891469D-03
 -0.32401297D-03 -0.27648085D-03 -0.95462194D-04  0.41942348D-04  0.19331190D-04
 -0.54206674D-04 -0.27859906D-04 -0.21361209D-04 -0.10660740D-04 -0.45160356D-05
 -0.34626097D-05 -0.17280849D-05  0.20426651D-08  0.15661861D-08  0.78163661D-09
  0.24296141D-03  0.10887527D-03  0.92574755D-05  0.35862068D-08 -0.42169982D-05
  0.50184426D-05 -0.45173490D-04  0.58331054D-06  0.33621599D-08 -0.16347231D-07
  0.26021164D-03  0.48003966D-03  0.77493285D-03  0.10087323D-02  0.86075311D-03
  0.29719736D-03 -0.46770841D-06 -0.21556638D-06  0.60447062D-06 -0.19296926D-04
 -0.14795659D-04 -0.73840708D-05 -0.26077004D-05 -0.19994193D-05 -0.99785034D-06
  0.12788418D-07  0.98053477D-08  0.48935557D-08 -0.21599106D-03 -0.43204353D-04
 -0.93720137D-04  0.26764183D-08  0.62370979D-04  0.18121459D-04 -0.63667487D-05
  0.41230056D-04 -0.17833189D-07 -0.10764361D-07  0.89449814D-02  0.16501744D-01
  0.26638932D-01  0.34675974D-01  0.29589071D-01  0.10216395D-01 -0.19178324D-03
 -0.88392721D-04  0.24786242D-03 -0.16829802D-03 -0.12904025D-03 -0.64400129D-04
 -0.27745903D-03 -0.21273798D-03 -0.10617116D-03  0.32923453D-08  0.25243615D-08
  0.12598333D-08  0.67847124D-03  0.31291922D-04  0.25617106D-03 -0.16406285D-07
 -0.39369598D-03 -0.43150339D-03 -0.31347251D-03 -0.16782930D-03  0.29285563D-07
  0.36053899D-07 -0.40737782D-05 -0.69098988D-05 -0.78666756D-05 -0.32064942D-05
  0.26735252D-05  0.45348048D-05  0.51627149D-05  0.34063020D-04 -0.78649656D-05
 -0.13340470D-04 -0.15187654D-04 -0.24173426D-04 -0.76350208D-05 -0.12950440D-04
 -0.14743619D-04  0.30722735D-04 -0.53837979D-05 -0.91319403D-05 -0.10396391D-04
 -0.14742014D-04 -0.40677653D-05 -0.68996998D-05 -0.78550643D-05 -0.31704190D-05
  0.26717614D-05  0.45318130D-05  0.51593089D-05  0.34042199D-04 -0.53787378D-05
 -0.91233573D-05 -0.10386620D-04 -0.14713929D-04 -0.76350306D-05 -0.12950457D-04
 -0.14743638D-04  0.30687625D-04
MO    2     MO 0.0        OCC NO =    2.0000000  ORB. ENERGY =  -10.196907
  0.94133955D-04  0.17365877D-03  0.28033909D-03  0.36491820D-03  0.31138536D-03
  0.10751388D-03 -0.49181250D-04 -0.22667593D-04  0.63562298D-04  0.10600583D-05
  0.81278547D-06  0.40563691D-06  0.16304930D-04  0.12501586D-04  0.62391676D-05
  0.83827962D-08  0.64273964D-08  0.32077213D-08 -0.42615434D-03  0.17946239D-03
 -0.94502086D-05  0.80689677D-08  0.38238970D-05  0.35052306D-05  0.39895767D-04
 -0.61325999D-05 -0.71289505D-08  0.22075439D-08 -0.82760978D-03 -0.15267784D-02
 -0.24646938D-02 -0.32082990D-02 -0.27376473D-02 -0.94524384D-03  0.46235800D-04
  0.21310038D-04 -0.59755571D-04  0.26494247D-05  0.20314108D-05  0.10138164D-05
 -0.13137450D-05 -0.10072964D-05 -0.50271148D-06  0.23511084D-07  0.18026808D-07
  0.89966407D-08  0.15563753D-03  0.55402569D-05 -0.22317225D-03 -0.31836396D-07
 -0.35945542D-04 -0.14132215D-04 -0.15292585D-04  0.16468176D-04  0.86268972D-08
  0.16991168D-07 -0.33666189D-01 -0.62107546D-01 -0.10026084D+00 -0.13050982D+00
 -0.11136426D+00 -0.38451404D-01  0.10889479D-02  0.50189510D-03 -0.14073662D-02
 -0.15886603D-03 -0.12180840D-03 -0.60790926D-04 -0.29879133D-03 -0.22909424D-03
 -0.11433408D-03 -0.55436094D-07 -0.42504881D-07 -0.21212914D-07 -0.11917881D-02
  0.39802355D-03  0.46665288D-03  0.61417422D-07  0.92863316D-03  0.10282756D-02
  0.83808269D-03  0.13904357D-03 -0.21165584D-07  0.48747150D-07 -0.37489567D+00
 -0.69160931D+00 -0.11164719D+01 -0.14533146D+01 -0.12401160D+01 -0.42818226D+00
  0.14178877D-01  0.65350314D-02 -0.18324910D-01  0.36179911D-03  0.27740461D-03
  0.13844434D-03 -0.52742046D-04 -0.40439256D-04 -0.20182023D-04  0.44292905D-09
  0.33960990D-09  0.16948914D-09  0.36899110D-02 -0.20105337D-03  0.34708635D-03
  0.17964671D-07  0.67682084D-02  0.69774519D-02  0.72053789D-02  0.10431638D-03
  0.22469647D-07 -0.16986777D-07 -0.93157311D-02 -0.17185705D-01 -0.27743056D-01
 -0.36113216D-01 -0.30815473D-01 -0.10639842D-01  0.21654637D-03  0.99806023D-04
 -0.27986651D-03 -0.12491143D-03 -0.95774165D-04 -0.47798021D-04  0.35422316D-03
  0.27159585D-03  0.13554536D-03  0.85497940D-07  0.65554397D-07  0.32716239D-07
 -0.77295620D-03  0.51811241D-05 -0.33483236D-03 -0.55452596D-07  0.46256733D-03
  0.57145375D-03  0.31847494D-03 -0.20092250D-03 -0.44839673D-07  0.72982985D-07
 -0.30513878D-03 -0.56292147D-03 -0.90872979D-03 -0.11828962D-02 -0.10093674D-02
 -0.34851032D-03  0.41234354D-04  0.19004876D-04 -0.53291657D-04 -0.17206446D-04
 -0.13192812D-04 -0.65841377D-05 -0.16715549D-04 -0.12816423D-04 -0.63962933D-05
 -0.15539411D-08 -0.11914635D-08 -0.59462377D-09  0.39079375D-03 -0.10394593D-03
  0.20516013D-03  0.29732552D-07 -0.63865072D-04 -0.20842831D-04 -0.31577729D-04
 -0.30977237D-05 -0.11824969D-07 -0.99862698D-09 -0.79901316D-03 -0.14740233D-02
 -0.23795306D-02 -0.30974418D-02 -0.26430527D-02 -0.91258258D-03  0.61054336D-04
  0.28139888D-04 -0.78907183D-04  0.14763568D-04  0.11319767D-04  0.56493573D-05
 -0.15887880D-04 -0.12181818D-04 -0.60795812D-05 -0.28985423D-07 -0.22224184D-07
 -0.11091425D-07  0.43660906D-03 -0.23969592D-03 -0.17810460D-03 -0.22391712D-07
 -0.21029666D-04 -0.21468768D-04 -0.28414209D-04  0.14565856D-04 -0.12054106D-07
  0.39817544D-08  0.37505705D+00  0.69190703D+00  0.11169525D+01  0.14539402D+01
  0.12406498D+01  0.42836658D+00 -0.14184866D-01 -0.65377917D-02  0.18332650D-01
  0.36167153D-03  0.27730679D-03  0.13839552D-03  0.52757186D-04  0.40450864D-04
  0.20187816D-04  0.30523740D-08  0.23403668D-08  0.11680070D-08 -0.36907169D-02
 -0.20091759D-03 -0.34711568D-03  0.12663548D-07 -0.67714858D-02 -0.69806249D-02
 -0.72086220D-02  0.10433573D-03 -0.24894470D-07 -0.15322211D-07  0.33681117D-01
  0.62135084D-01  0.10030529D+00  0.13056769D+00  0.11141364D+00  0.38468454D-01
 -0.10894411D-02 -0.50212241D-03  0.14080036D-02 -0.15894926D-03 -0.12187221D-03
 -0.60822775D-04  0.29891694D-03  0.22919055D-03  0.11438215D-03 -0.53768910D-07
 -0.41226590D-07 -0.20574958D-07  0.11920374D-02  0.39807935D-03 -0.46679668D-03
  0.59031043D-07 -0.92901262D-03 -0.10286816D-02 -0.83844049D-03  0.13909247D-03
  0.19372458D-07  0.42513837D-07  0.79929797D-03  0.14745487D-02  0.23803788D-02
  0.30985459D-02  0.26439948D-02  0.91290787D-03 -0.61048249D-04 -0.28137082D-04
  0.78899315D-04  0.14764720D-04  0.11320651D-04  0.56497980D-05  0.15914790D-04
  0.12202452D-04  0.60898786D-05 -0.25585330D-07 -0.19617208D-07 -0.97903617D-08
 -0.43657115D-03 -0.23971443D-03  0.17810080D-03 -0.25319280D-07  0.21031452D-04
  0.21470909D-04  0.28393026D-04  0.14567379D-04  0.74652132D-08  0.43663820D-08
  0.82795457D-03  0.15274145D-02  0.24657206D-02  0.32096356D-02  0.27387879D-02
  0.94563764D-03 -0.46238376D-04 -0.21311225D-04  0.59758900D-04  0.26382351D-05
  0.20228313D-05  0.10095346D-05  0.13181765D-05  0.10106941D-05  0.50440719D-06
  0.19336628D-07  0.14826100D-07  0.73992631D-08 -0.15568146D-03  0.55489381D-05
  0.22322169D-03 -0.30674852D-07  0.35955830D-04  0.14131735D-04  0.15280534D-04
  0.16454793D-04 -0.12207185D-07  0.12561155D-07 -0.14409972D-04 -0.24442040D-04
 -0.27826399D-04 -0.66453862D-04 -0.94168958D-04 -0.17372334D-03 -0.28044334D-03
 -0.36505390D-03 -0.31150115D-03 -0.10755386D-03  0.49199139D-04  0.22675838D-04
 -0.63585417D-04  0.10477739D-05  0.80336661D-06  0.40093624D-06 -0.16307072D-04
 -0.12503228D-04 -0.62399872D-05  0.69415766D-08  0.53223606D-08  0.26562310D-08
  0.42625494D-03  0.17950774D-03  0.94561206D-05  0.50202009D-08 -0.38253451D-05
 -0.35028432D-05 -0.39915062D-04 -0.61319877D-05  0.64569995D-08  0.23923869D-08
  0.30525776D-03  0.56314096D-03  0.90908412D-03  0.11833574D-02  0.10097610D-02
  0.34864621D-03 -0.41234687D-04 -0.19005029D-04  0.53292086D-04 -0.17214465D-04
 -0.13198960D-04 -0.65872059D-05  0.16714354D-04  0.12815506D-04  0.63958358D-05
 -0.30570137D-08 -0.23439242D-08 -0.11697825D-08 -0.39088689D-03 -0.10396737D-03
 -0.20519862D-03  0.28886036D-07  0.63892139D-04  0.20850803D-04  0.31574287D-04
 -0.30811688D-05  0.10895255D-07  0.48124090D-11  0.93194620D-02  0.17192588D-01
  0.27754167D-01  0.36127679D-01  0.30827814D-01  0.10644103D-01 -0.21662671D-03
 -0.99843053D-04  0.27997034D-03 -0.12497984D-03 -0.95826611D-04 -0.47824195D-04
 -0.35433791D-03 -0.27168383D-03 -0.13558927D-03  0.83901391D-07  0.64330265D-07
  0.32105311D-07  0.77324620D-03  0.51902799D-05  0.33494049D-03 -0.51132649D-07
 -0.46273452D-03 -0.57163656D-03 -0.31860757D-03 -0.20099775D-03  0.43325912D-07
  0.75339486D-07  0.13897092D-04  0.23572098D-04  0.26836000D-04  0.82520833D-04
 -0.40296843D-05 -0.68351073D-05 -0.77815280D-05 -0.47878575D-04  0.14406642D-04
  0.24436391D-04  0.27819968D-04  0.66444099D-04  0.51581919D-06  0.87492698D-06
  0.99607344D-06 -0.79265805D-04  0.11791208D-04  0.20000120D-04  0.22769430D-04
  0.64990030D-04 -0.13898854D-04 -0.23575088D-04 -0.26839404D-04 -0.82521991D-04
  0.40308114D-05  0.68370191D-05  0.77837046D-05  0.47892896D-04 -0.11793540D-04
 -0.20004075D-04 -0.22773933D-04 -0.64996442D-04 -0.51923109D-06 -0.88071420D-06
 -0.10026620D-05  0.79279076D-04
MO    3     MO 0.0        OCC NO =    2.0000000  ORB. ENERGY =  -10.194336
  0.53349152D-03  0.98418769D-03  0.15887841D-02  0.20681248D-02  0.17647346D-02
  0.60932047D-03 -0.23410275D-04 -0.10789774D-04  0.30255654D-04  0.10670935D-04
  0.81817964D-05  0.40832898D-05 -0.91771017D-05 -0.70364195D-05 -0.35116665D-05
  0.98969485D-08  0.75883524D-08  0.37871197D-08 -0.28295594D-03  0.13374545D-03
  0.33793706D-05  0.51266926D-08  0.36910034D-04  0.45137197D-04  0.26760178D-05
 -0.56391929D-04 -0.15027171D-08  0.12557717D-07  0.12427127D-01  0.22925623D-01
  0.37009065D-01  0.48174806D-01  0.41107649D-01  0.14193483D-01 -0.33677312D-03
 -0.15521843D-03  0.43524867D-03  0.37905320D-03  0.29063395D-03  0.14504671D-03
  0.44072468D-04  0.33791973D-04  0.16864563D-04  0.23443390D-07  0.17974905D-07
  0.89707371D-08  0.50443188D-03 -0.16238183D-03 -0.14240426D-03 -0.28158511D-07
 -0.67451075D-03 -0.45275157D-03 -0.38744637D-03  0.22896711D-04 -0.63658412D-08
  0.10134333D-07  0.37984498D+00  0.70073981D+00  0.11312113D+01  0.14725010D+01
  0.12564878D+01  0.43383504D+00 -0.14309562D-01 -0.65952639D-02  0.18493808D-01
 -0.12923412D-03 -0.99088523D-04 -0.49452118D-04 -0.51575645D-04 -0.39544933D-04
 -0.19735693D-04 -0.39501346D-07 -0.30287126D-07 -0.15115399D-07 -0.33068208D-02
  0.55320805D-03  0.21476524D-03  0.66218818D-07 -0.71939079D-02 -0.72557347D-02
 -0.74350708D-02 -0.15406274D-04  0.10618187D-07  0.30035514D-07 -0.34269159D-01
 -0.63219907D-01 -0.10205653D+00 -0.13284728D+00 -0.11335883D+00 -0.39140078D-01
  0.14888580D-02  0.68621328D-03 -0.19242137D-02 -0.11789123D-03 -0.90391515D-04
 -0.45111701D-04 -0.33152668D-03 -0.25419363D-03 -0.12686044D-03 -0.42762314D-07
 -0.32787430D-07 -0.16363226D-07  0.18762398D-02 -0.46588633D-04  0.76607594D-03
  0.49242766D-07  0.32704185D-03  0.27098245D-03  0.46863169D-03 -0.11788898D-03
 -0.20411284D-07 -0.52033493D-08 -0.11539703D-02 -0.21288499D-02 -0.34366239D-02
 -0.44734632D-02 -0.38172142D-02 -0.13179923D-02  0.31178362D-04  0.14370078D-04
 -0.40295200D-04 -0.57537177D-04 -0.44115858D-04 -0.22016905D-04  0.70258103D-04
  0.53869457D-04  0.26884635D-04  0.44714513D-07  0.34284253D-07  0.17110245D-07
 -0.30673273D-04 -0.10732656D-03 -0.53940328D-04 -0.12174074D-07  0.11015010D-03
  0.15241528D-03  0.57356632D-04 -0.45306197D-04 -0.26312873D-07  0.31490109D-07
 -0.19364222D-03 -0.35723208D-03 -0.57668334D-03 -0.75067036D-03 -0.64054838D-03
 -0.22116596D-03  0.42624150D-04  0.19645432D-04 -0.55087842D-04  0.28758816D-04
  0.22050436D-04  0.11004713D-04 -0.14307789D-04 -0.10970305D-04 -0.54749512D-05
  0.42064936D-08  0.32252725D-08  0.16096370D-08  0.25885179D-03 -0.67782965D-04
  0.10444792D-03  0.14328860D-07 -0.21936479D-04 -0.33786847D-05 -0.39747766D-04
 -0.41370562D-06 -0.49949037D-08  0.78807024D-08  0.10515553D-01  0.19399142D-01
  0.31316230D-01  0.40764426D-01  0.34784359D-01  0.12010203D-01 -0.22497236D-03
 -0.10368956D-03  0.29075634D-03 -0.14502898D-03 -0.11119902D-03 -0.55496106D-04
  0.28603218D-03  0.21931133D-03  0.10945172D-03 -0.74376652D-08 -0.57027299D-08
 -0.28460619D-08  0.14208477D-02 -0.19249037D-03 -0.58134634D-03 -0.34163930D-07
 -0.53643886D-03 -0.58101169D-03 -0.39367736D-03  0.20906839D-03 -0.24047683D-07
  0.38754054D-07  0.33452062D-01  0.61712523D-01  0.99623147D-01  0.12967974D+00
  0.11065595D+00  0.38206842D-01 -0.14536948D-02 -0.67000660D-03  0.18787684D-02