 Generated by Multiwfn
GAUSSIAN             95 MOL ORBITALS    432 PRIMITIVES       24 NUCLEI
  C    1    (CENTRE  1)   6.89016838  1.34312988 -0.00004475  CHARGE =  6.0
  C    2    (CENTRE  2)   4.66917055  2.64850269  0.00010101  CHARGE =  6.0
  C    3    (CENTRE  3)   2.30331966  1.36039090  0.00008247  CHARGE =  6.0
  C    4    (CENTRE  4)   2.30332187 -1.36039200  0.00004815  CHARGE =  6.0
  C    5    (CENTRE  5)   4.66917375 -2.64850157 -0.00005749  CHARGE =  6.0
  C    6    (CENTRE  6)   6.89017078 -1.34312368 -0.00013804  CHARGE =  6.0
  C    7    (CENTRE  7)  -0.00000030  2.64233317  0.00006707  CHARGE =  6.0
  C    8    (CENTRE  8)   0.00000202 -2.64233561  0.00005932  CHARGE =  6.0
  C    9    (CENTRE  9)  -2.30331913 -1.36039436  0.00005794  CHARGE =  6.0
  C   10    (CENTRE 10)  -2.30332153  1.36038969  0.00001763  CHARGE =  6.0
  C   11    (CENTRE 11)  -4.66917112  2.64850301 -0.00007442  CHARGE =  6.0
  H   12    (CENTRE 12)  -4.66769625  4.69463265 -0.00017015  CHARGE =  1.0
  C   13    (CENTRE 13)  -6.89016936  1.34312789 -0.00012378  CHARGE =  6.0
  C   14    (CENTRE 14)  -6.89016825 -1.34312553 -0.00001671  CHARGE =  6.0
  C   15    (CENTRE 15)  -4.66917220 -2.64850292  0.00006850  CHARGE =  6.0
  H   16    (CENTRE 16)  -0.00001234  4.69017104  0.00009698  CHARGE =  1.0
  H   17    (CENTRE 17)   8.67132548  2.34655340 -0.00010089  CHARGE =  1.0
  H   18    (CENTRE 18)   4.66769069  4.69463276  0.00020577  CHARGE =  1.0
  H   19    (CENTRE 19)   4.66769568 -4.69463091 -0.00007020  CHARGE =  1.0
  H   20    (CENTRE 20)   8.67131820 -2.34656480 -0.00025831  CHARGE =  1.0
  H   21    (CENTRE 21)  -0.00000990 -4.69017306  0.00008644  CHARGE =  1.0
  H   22    (CENTRE 22)  -8.67132020  2.34656261 -0.00019099  CHARGE =  1.0
  H   23    (CENTRE 23)  -8.67131933 -2.34656017 -0.00004866  CHARGE =  1.0
  H   24    (CENTRE 24)  -4.66770265 -4.69463272  0.00016870  CHARGE =  1.0
CENTRE ASSIGNMENTS    1  1  1  1  1  1  1  1  1  1  1  1  1  1  1  1  1  1  1  1
CENTRE ASSIGNMENTS    1  1  1  1  1  1  1  1  2  2  2  2  2  2  2  2  2  2  2  2
CENTRE ASSIGNMENTS    2  2  2  2  2  2  2  2  2  2  2  2  2  2  2  2  3  3  3  3
CENTRE ASSIGNMENTS    3  3  3  3  3  3  3  3  3  3  3  3  3  3  3  3  3  3  3  3
CENTRE ASSIGNMENTS    3  3  3  3  4  4  4  4  4  4  4  4  4  4  4  4  4  4  4  4
CENTRE ASSIGNMENTS    4  4  4  4  4  4  4  4  4  4  4  4  5  5  5  5  5  5  5  5
CENTRE ASSIGNMENTS    5  5  5  5  5  5  5  5  5  5  5  5  5  5  5  5  5  5  5  5
CENTRE ASSIGNMENTS    6  6  6  6  6  6  6  6  6  6  6  6  6  6  6  6  6  6  6  6
CENTRE ASSIGNMENTS    6  6  6  6  6  6  6  6  7  7  7  7  7  7  7  7  7  7  7  7
CENTRE ASSIGNMENTS    7  7  7  7  7  7  7  7  7  7  7  7  7  7  7  7  8  8  8  8
CENTRE ASSIGNMENTS    8  8  8  8  8  8  8  8  8  8  8  8  8  8  8  8  8  8  8  8
CENTRE ASSIGNMENTS    8  8  8  8  9  9  9  9  9  9  9  9  9  9  9  9  9  9  9  9
CENTRE ASSIGNMENTS    9  9  9  9  9  9  9  9  9  9  9  9 10 10 10 10 10 10 10 10
CENTRE ASSIGNMENTS   10 10 10 10 10 10 10 10 10 10 10 10 10 10 10 10 10 10 10 10
CENTRE ASSIGNMENTS   11 11 11 11 11 11 11 11 11 11 11 11 11 11 11 11 11 11 11 11
CENTRE ASSIGNMENTS   11 11 11 11 11 11 11 11 12 12 12 12 13 13 13 13 13 13 13 13
CENTRE ASSIGNMENTS   13 13 13 13 13 13 13 13 13 13 13 13 13 13 13 13 13 13 13 13
CENTRE ASSIGNMENTS   14 14 14 14 14 14 14 14 14 14 14 14 14 14 14 14 14 14 14 14
CENTRE ASSIGNMENTS   14 14 14 14 14 14 14 14 15 15 15 15 15 15 15 15 15 15 15 15
CENTRE ASSIGNMENTS   15 15 15 15 15 15 15 15 15 15 15 15 15 15 15 15 16 16 16 16
CENTRE ASSIGNMENTS   17 17 17 17 18 18 18 18 19 19 19 19 20 20 20 20 21 21 21 21
CENTRE ASSIGNMENTS   22 22 22 22 23 23 23 23 24 24 24 24
TYPE ASSIGNMENTS      1  1  1  1  1  1  1  1  1  2  2  2  3  3  3  4  4  4  1  2
TYPE ASSIGNMENTS      3  4  5  6  7  8  9 10  1  1  1  1  1  1  1  1  1  2  2  2
TYPE ASSIGNMENTS      3  3  3  4  4  4  1  2  3  4  5  6  7  8  9 10  1  1  1  1
TYPE ASSIGNMENTS      1  1  1  1  1  2  2  2  3  3  3  4  4  4  1  2  3  4  5  6
TYPE ASSIGNMENTS      7  8  9 10  1  1  1  1  1  1  1  1  1  2  2  2  3  3  3  4
TYPE ASSIGNMENTS      4  4  1  2  3  4  5  6  7  8  9 10  1  1  1  1  1  1  1  1
TYPE ASSIGNMENTS      1  2  2  2  3  3  3  4  4  4  1  2  3  4  5  6  7  8  9 10
TYPE ASSIGNMENTS      1  1  1  1  1  1  1  1  1  2  2  2  3  3  3  4  4  4  1  2
TYPE ASSIGNMENTS      3  4  5  6  7  8  9 10  1  1  1  1  1  1  1  1  1  2  2  2
TYPE ASSIGNMENTS      3  3  3  4  4  4  1  2  3  4  5  6  7  8  9 10  1  1  1  1
TYPE ASSIGNMENTS      1  1  1  1  1  2  2  2  3  3  3  4  4  4  1  2  3  4  5  6
TYPE ASSIGNMENTS      7  8  9 10  1  1  1  1  1  1  1  1  1  2  2  2  3  3  3  4
TYPE ASSIGNMENTS      4  4  1  2  3  4  5  6  7  8  9 10  1  1  1  1  1  1  1  1
TYPE ASSIGNMENTS      1  2  2  2  3  3  3  4  4  4  1  2  3  4  5  6  7  8  9 10
TYPE ASSIGNMENTS      1  1  1  1  1  1  1  1  1  2  2  2  3  3  3  4  4  4  1  2
TYPE ASSIGNMENTS      3  4  5  6  7  8  9 10  1  1  1  1  1  1  1  1  1  1  1  1
TYPE ASSIGNMENTS      1  2  2  2  3  3  3  4  4  4  1  2  3  4  5  6  7  8  9 10
TYPE ASSIGNMENTS      1  1  1  1  1  1  1  1  1  2  2  2  3  3  3  4  4  4  1  2
TYPE ASSIGNMENTS      3  4  5  6  7  8  9 10  1  1  1  1  1  1  1  1  1  2  2  2
TYPE ASSIGNMENTS      3  3  3  4  4  4  1  2  3  4  5  6  7  8  9 10  1  1  1  1
TYPE ASSIGNMENTS      1  1  1  1  1  1  1  1  1  1  1  1  1  1  1  1  1  1  1  1
TYPE ASSIGNMENTS      1  1  1  1  1  1  1  1  1  1  1  1
EXPONENTS  0.3047525D+04 0.4573695D+03 0.1039487D+03 0.2921016D+02 0.9286663D+01
EXPONENTS  0.3163927D+01 0.7868272D+01 0.1881289D+01 0.5442493D+00 0.7868272D+01
EXPONENTS  0.1881289D+01 0.5442493D+00 0.7868272D+01 0.1881289D+01 0.5442493D+00
EXPONENTS  0.7868272D+01 0.1881289D+01 0.5442493D+00 0.1687145D+00 0.1687145D+00
EXPONENTS  0.1687145D+00 0.1687145D+00 0.8000000D+00 0.8000000D+00 0.8000000D+00
EXPONENTS  0.8000000D+00 0.8000000D+00 0.8000000D+00 0.3047525D+04 0.4573695D+03
EXPONENTS  0.1039487D+03 0.2921016D+02 0.9286663D+01 0.3163927D+01 0.7868272D+01
EXPONENTS  0.1881289D+01 0.5442493D+00 0.7868272D+01 0.1881289D+01 0.5442493D+00
EXPONENTS  0.7868272D+01 0.1881289D+01 0.5442493D+00 0.7868272D+01 0.1881289D+01
EXPONENTS  0.5442493D+00 0.1687145D+00 0.1687145D+00 0.1687145D+00 0.1687145D+00
EXPONENTS  0.8000000D+00 0.8000000D+00 0.8000000D+00 0.8000000D+00 0.8000000D+00
EXPONENTS  0.8000000D+00 0.3047525D+04 0.4573695D+03 0.1039487D+03 0.2921016D+02
EXPONENTS  0.9286663D+01 0.3163927D+01 0.7868272D+01 0.1881289D+01 0.5442493D+00
EXPONENTS  0.7868272D+01 0.1881289D+01 0.5442493D+00 0.7868272D+01 0.1881289D+01
EXPONENTS  0.5442493D+00 0.7868272D+01 0.1881289D+01 0.5442493D+00 0.1687145D+00
EXPONENTS  0.1687145D+00 0.1687145D+00 0.1687145D+00 0.8000000D+00 0.8000000D+00
EXPONENTS  0.8000000D+00 0.8000000D+00 0.8000000D+00 0.8000000D+00 0.3047525D+04
EXPONENTS  0.4573695D+03 0.1039487D+03 0.2921016D+02 0.9286663D+01 0.3163927D+01
EXPONENTS  0.7868272D+01 0.1881289D+01 0.5442493D+00 0.7868272D+01 0.1881289D+01
EXPONENTS  0.5442493D+00 0.7868272D+01 0.1881289D+01 0.5442493D+00 0.7868272D+01
EXPONENTS  0.1881289D+01 0.5442493D+00 0.1687145D+00 0.1687145D+00 0.1687145D+00
EXPONENTS  0.1687145D+00 0.8000000D+00 0.8000000D+00 0.8000000D+00 0.8000000D+00
EXPONENTS  0.8000000D+00 0.8000000D+00 0.3047525D+04 0.4573695D+03 0.1039487D+03
EXPONENTS  0.2921016D+02 0.9286663D+01 0.3163927D+01 0.7868272D+01 0.1881289D+01
EXPONENTS  0.5442493D+00 0.7868272D+01 0.1881289D+01 0.5442493D+00 0.7868272D+01
EXPONENTS  0.1881289D+01 0.5442493D+00 0.7868272D+01 0.1881289D+01 0.5442493D+00
EXPONENTS  0.1687145D+00 0.1687145D+00 0.1687145D+00 0.1687145D+00 0.8000000D+00
EXPONENTS  0.8000000D+00 0.8000000D+00 0.8000000D+00 0.8000000D+00 0.8000000D+00
EXPONENTS  0.3047525D+04 0.4573695D+03 0.1039487D+03 0.2921016D+02 0.9286663D+01
EXPONENTS  0.3163927D+01 0.7868272D+01 0.1881289D+01 0.5442493D+00 0.7868272D+01
EXPONENTS  0.1881289D+01 0.5442493D+00 0.7868272D+01 0.1881289D+01 0.5442493D+00
EXPONENTS  0.7868272D+01 0.1881289D+01 0.5442493D+00 0.1687145D+00 0.1687145D+00
EXPONENTS  0.1687145D+00 0.1687145D+00 0.8000000D+00 0.8000000D+00 0.8000000D+00
EXPONENTS  0.8000000D+00 0.8000000D+00 0.8000000D+00 0.3047525D+04 0.4573695D+03
EXPONENTS  0.1039487D+03 0.2921016D+02 0.9286663D+01 0.3163927D+01 0.7868272D+01
EXPONENTS  0.1881289D+01 0.5442493D+00 0.7868272D+01 0.1881289D+01 0.5442493D+00
EXPONENTS  0.7868272D+01 0.1881289D+01 0.5442493D+00 0.7868272D+01 0.1881289D+01
EXPONENTS  0.5442493D+00 0.1687145D+00 0.1687145D+00 0.1687145D+00 0.1687145D+00
EXPONENTS  0.8000000D+00 0.8000000D+00 0.8000000D+00 0.8000000D+00 0.8000000D+00
EXPONENTS  0.8000000D+00 0.3047525D+04 0.4573695D+03 0.1039487D+03 0.2921016D+02
EXPONENTS  0.9286663D+01 0.3163927D+01 0.7868272D+01 0.1881289D+01 0.5442493D+00
EXPONENTS  0.7868272D+01 0.1881289D+01 0.5442493D+00 0.7868272D+01 0.1881289D+01
EXPONENTS  0.5442493D+00 0.7868272D+01 0.1881289D+01 0.5442493D+00 0.1687145D+00
EXPONENTS  0.1687145D+00 0.1687145D+00 0.1687145D+00 0.8000000D+00 0.8000000D+00
EXPONENTS  0.8000000D+00 0.8000000D+00 0.8000000D+00 0.8000000D+00 0.3047525D+04
EXPONENTS  0.4573695D+03 0.1039487D+03 0.2921016D+02 0.9286663D+01 0.3163927D+01
EXPONENTS  0.7868272D+01 0.1881289D+01 0.5442493D+00 0.7868272D+01 0.1881289D+01
EXPONENTS  0.5442493D+00 0.7868272D+01 0.1881289D+01 0.5442493D+00 0.7868272D+01
EXPONENTS  0.1881289D+01 0.5442493D+00 0.1687145D+00 0.1687145D+00 0.1687145D+00
EXPONENTS  0.1687145D+00 0.8000000D+00 0.8000000D+00 0.8000000D+00 0.8000000D+00
EXPONENTS  0.8000000D+00 0.8000000D+00 0.3047525D+04 0.4573695D+03 0.1039487D+03
EXPONENTS  0.2921016D+02 0.9286663D+01 0.3163927D+01 0.7868272D+01 0.1881289D+01
EXPONENTS  0.5442493D+00 0.7868272D+01 0.1881289D+01 0.5442493D+00 0.7868272D+01
EXPONENTS  0.1881289D+01 0.5442493D+00 0.7868272D+01 0.1881289D+01 0.5442493D+00
EXPONENTS  0.1687145D+00 0.1687145D+00 0.1687145D+00 0.1687145D+00 0.8000000D+00
EXPONENTS  0.8000000D+00 0.8000000D+00 0.8000000D+00 0.8000000D+00 0.8000000D+00
EXPONENTS  0.3047525D+04 0.4573695D+03 0.1039487D+03 0.2921016D+02 0.9286663D+01
EXPONENTS  0.3163927D+01 0.7868272D+01 0.1881289D+01 0.5442493D+00 0.7868272D+01
EXPONENTS  0.1881289D+01 0.5442493D+00 0.7868272D+01 0.1881289D+01 0.5442493D+00
EXPONENTS  0.7868272D+01 0.1881289D+01 0.5442493D+00 0.1687145D+00 0.1687145D+00
EXPONENTS  0.1687145D+00 0.1687145D+00 0.8000000D+00 0.8000000D+00 0.8000000D+00
EXPONENTS  0.8000000D+00 0.8000000D+00 0.8000000D+00 0.1873114D+02 0.2825394D+01
EXPONENTS  0.6401217D+00 0.1612778D+00 0.3047525D+04 0.4573695D+03 0.1039487D+03
EXPONENTS  0.2921016D+02 0.9286663D+01 0.3163927D+01 0.7868272D+01 0.1881289D+01
EXPONENTS  0.5442493D+00 0.7868272D+01 0.1881289D+01 0.5442493D+00 0.7868272D+01
EXPONENTS  0.1881289D+01 0.5442493D+00 0.7868272D+01 0.1881289D+01 0.5442493D+00
EXPONENTS  0.1687145D+00 0.1687145D+00 0.1687145D+00 0.1687145D+00 0.8000000D+00
EXPONENTS  0.8000000D+00 0.8000000D+00 0.8000000D+00 0.8000000D+00 0.8000000D+00
EXPONENTS  0.3047525D+04 0.4573695D+03 0.1039487D+03 0.2921016D+02 0.9286663D+01
EXPONENTS  0.3163927D+01 0.7868272D+01 0.1881289D+01 0.5442493D+00 0.7868272D+01
EXPONENTS  0.1881289D+01 0.5442493D+00 0.7868272D+01 0.1881289D+01 0.5442493D+00
EXPONENTS  0.7868272D+01 0.1881289D+01 0.5442493D+00 0.1687145D+00 0.1687145D+00
EXPONENTS  0.1687145D+00 0.1687145D+00 0.8000000D+00 0.8000000D+00 0.8000000D+00
EXPONENTS  0.8000000D+00 0.8000000D+00 0.8000000D+00 0.3047525D+04 0.4573695D+03
EXPONENTS  0.1039487D+03 0.2921016D+02 0.9286663D+01 0.3163927D+01 0.7868272D+01
EXPONENTS  0.1881289D+01 0.5442493D+00 0.7868272D+01 0.1881289D+01 0.5442493D+00
EXPONENTS  0.7868272D+01 0.1881289D+01 0.5442493D+00 0.7868272D+01 0.1881289D+01
EXPONENTS  0.5442493D+00 0.1687145D+00 0.1687145D+00 0.1687145D+00 0.1687145D+00
EXPONENTS  0.8000000D+00 0.8000000D+00 0.8000000D+00 0.8000000D+00 0.8000000D+00
EXPONENTS  0.8000000D+00 0.1873114D+02 0.2825394D+01 0.6401217D+00 0.1612778D+00
EXPONENTS  0.1873114D+02 0.2825394D+01 0.6401217D+00 0.1612778D+00 0.1873114D+02
EXPONENTS  0.2825394D+01 0.6401217D+00 0.1612778D+00 0.1873114D+02 0.2825394D+01
EXPONENTS  0.6401217D+00 0.1612778D+00 0.1873114D+02 0.2825394D+01 0.6401217D+00
EXPONENTS  0.1612778D+00 0.1873114D+02 0.2825394D+01 0.6401217D+00 0.1612778D+00
EXPONENTS  0.1873114D+02 0.2825394D+01 0.6401217D+00 0.1612778D+00 0.1873114D+02
EXPONENTS  0.2825394D+01 0.6401217D+00 0.1612778D+00 0.1873114D+02 0.2825394D+01
EXPONENTS  0.6401217D+00 0.1612778D+00
MO    1     MO 0.0        OCC NO =    1.0000000  ORB. ENERGY =  -10.026844
  0.83409997D-03  0.15387516D-02  0.24840222D-02  0.32334588D-02  0.27591162D-02
  0.95265653D-03 -0.28660215D-05 -0.13209467D-05  0.37040724D-05  0.21758702D-04
  0.16683193D-04  0.83260825D-05 -0.28600426D-05 -0.21928993D-05 -0.10944104D-05
  0.48185728D-08  0.36945760D-08  0.18438524D-08  0.47349698D-04 -0.75790034D-05
  0.26785331D-04 -0.25860322D-09  0.26783012D-04  0.27388588D-06 -0.44331348D-04
 -0.23693095D-04 -0.24757715D-08  0.72261447D-08  0.75282611D-02  0.13888172D-01
  0.22419815D-01  0.29183938D-01  0.24902707D-01  0.85983063D-02 -0.18899687D-03
 -0.87108482D-04  0.24426128D-03  0.20500059D-03  0.15718145D-03  0.78444559D-04
  0.14629496D-03  0.11216969D-03  0.55980539D-04 -0.23221878D-08 -0.17805063D-08
 -0.88859742D-09  0.37447084D-03 -0.18398464D-03 -0.50359927D-04  0.28116604D-08
 -0.36795629D-03 -0.29757842D-03 -0.24400802D-03 -0.12361038D-03  0.47069544D-09
 -0.43239234D-09  0.27514039D+00  0.50758029D+00  0.81939197D+00  0.10666049D+01
  0.91013588D+00  0.31424805D+00 -0.10177786D-01 -0.46909323D-02  0.13153864D-01
  0.28543110D-04  0.21885046D-04  0.10922172D-04  0.18438258D-03  0.14137287D-03
  0.70554971D-04  0.46784531D-08  0.35871411D-08  0.17902348D-08 -0.13259288D-02
  0.42256500D-04 -0.17539748D-03 -0.37869628D-08 -0.53151686D-02 -0.55381968D-02
 -0.55331007D-02 -0.22695795D-04  0.63470011D-08  0.15678626D-08  0.27511278D+00
  0.50752935D+00  0.81930974D+00  0.10664978D+01  0.91004454D+00  0.31421651D+00
 -0.10176745D-01 -0.46904525D-02  0.13152518D-01  0.28532748D-04  0.21877102D-04
  0.10918207D-04 -0.18441611D-03 -0.14139858D-03 -0.70567801D-04 -0.11038086D-07
 -0.84633045D-08 -0.42237821D-08 -0.13256986D-02  0.42320958D-04  0.17546391D-03
  0.95301814D-08 -0.53146568D-02 -0.55376911D-02 -0.55325652D-02  0.22693023D-04
 -0.14027042D-07 -0.22637566D-08  0.75273580D-02  0.13886506D-01  0.22417126D-01
  0.29180437D-01  0.24899720D-01  0.85972749D-02 -0.18897507D-03 -0.87098436D-04
  0.24423311D-03  0.20498662D-03  0.15717074D-03  0.78439215D-04 -0.14628235D-03
 -0.11216003D-03 -0.55975714D-04 -0.86834362D-08 -0.66579081D-08 -0.33227628D-08
  0.37435837D-03 -0.18398451D-03  0.50306557D-04  0.53422546D-08 -0.36790603D-03
 -0.29754361D-03 -0.24397713D-03  0.12359511D-03  0.14968555D-07 -0.13986411D-07
  0.83387145D-03  0.15383300D-02  0.24833416D-02  0.32325729D-02  0.27583603D-02
  0.95239553D-03 -0.28511334D-05 -0.13140848D-05  0.36848309D-05  0.21757125D-04
  0.16681983D-04  0.83254787D-05  0.28572437D-05  0.21907533D-05  0.10933394D-05
  0.36069598D-08  0.27655880D-08  0.13802223D-08  0.47429518D-04 -0.76133654D-05
 -0.26772238D-04 -0.12770147D-09  0.26781959D-04  0.27648754D-06 -0.44333080D-04
  0.23693596D-04 -0.45431274D-08 -0.14745030D-08  0.61372586D-02  0.11322044D-01
  0.18277289D-01  0.23791600D-01  0.20301415D-01  0.70095908D-02 -0.11871363D-04
 -0.54715004D-05  0.15342658D-04 -0.14469635D-04 -0.11094399D-04 -0.55368824D-05
  0.30739839D-03  0.23569358D-03  0.11762762D-03  0.11784657D-08  0.90357272D-09
  0.45094612D-09  0.96506064D-03  0.92099013D-05 -0.18980501D-03 -0.85086899D-09
 -0.47946960D-03 -0.38778803D-03 -0.30959509D-03  0.57301028D-05 -0.44517081D-08
  0.85731663D-09  0.61374529D-02  0.11322402D-01  0.18277868D-01  0.23792353D-01
  0.20302058D-01  0.70098127D-02 -0.11869752D-04 -0.54707580D-05  0.15340576D-04
 -0.14406742D-04 -0.11046176D-04 -0.55128161D-05 -0.30740745D-03 -0.23570053D-03
 -0.11763108D-03  0.12310720D-08  0.94390792D-09  0.47107621D-09  0.96512653D-03
  0.92145339D-05  0.18983257D-03 -0.33482850D-08 -0.47949105D-03 -0.38780409D-03
 -0.30960734D-03 -0.56944698D-05 -0.17128716D-08 -0.77413907D-08  0.25670538D+00
  0.47357129D+00  0.76449091D+00  0.99514001D+00  0.84915477D+00  0.29319274D+00
 -0.94946384D-02 -0.43760702D-02  0.12270958D-01 -0.29481798D-04 -0.22604773D-04
 -0.11281366D-04 -0.17508782D-03 -0.13424623D-03 -0.66998279D-04 -0.24766210D-08
 -0.18989159D-08 -0.94769212D-09 -0.12488475D-02 -0.41294580D-04  0.16690828D-03
  0.34795536D-09 -0.49552801D-02 -0.51650556D-02 -0.51634342D-02 -0.23611310D-04
 -0.42276254D-08  0.32262365D-08  0.25666095D+00  0.47348933D+00  0.76435859D+00
  0.99496777D+00  0.84900780D+00  0.29314199D+00 -0.94929585D-02 -0.43752959D-02
  0.12268786D-01 -0.29477039D-04 -0.22601123D-04 -0.11279545D-04  0.17514298D-03
  0.13428853D-03  0.67019389D-04  0.33502550D-08  0.25687630D-08  0.12819928D-08
 -0.12484037D-02 -0.41321208D-04 -0.16701565D-03 -0.59833089D-09 -0.49544648D-02
 -0.51642467D-02 -0.51625785D-02  0.23604291D-04  0.14727685D-07  0.53716409D-08
  0.70234420D-02  0.12956879D-01  0.20916420D-01  0.27226964D-01  0.23232818D-01
  0.80217337D-02 -0.17544232D-03 -0.80861204D-04  0.22674326D-03 -0.19257894D-03
 -0.14765731D-03 -0.73691349D-04  0.13559619D-03  0.10396656D-03  0.51886598D-04
 -0.81171226D-08 -0.62236947D-08 -0.31060599D-08  0.35087059D-03  0.17773349D-03
 -0.45202643D-04  0.66499558D-08 -0.34193391D-03 -0.27844768D-03 -0.22830522D-03
  0.11466798D-03 -0.74986934D-08  0.35515543D-08 -0.13277780D-04 -0.22521628D-04
 -0.25640077D-04 -0.16640525D-05  0.77788814D-03  0.14350517D-02  0.23166184D-02
  0.30155489D-02  0.25731733D-02  0.88845491D-03 -0.23406459D-05 -0.10788016D-05
  0.30250722D-05 -0.19264118D-04 -0.14770504D-04 -0.73715166D-05 -0.28887651D-05
 -0.22149218D-05 -0.11054012D-05  0.18170510D-08  0.13931995D-08  0.69530417D-09
  0.49746709D-04  0.80419627D-05  0.26717489D-04 -0.78247464D-09  0.25323745D-04
  0.34385313D-06 -0.41599148D-04  0.22500685D-04  0.23577599D-08  0.18785301D-10
  0.77811345D-03  0.14354674D-02  0.23172894D-02  0.30164223D-02  0.25739186D-02
  0.88871225D-03 -0.23564309D-05 -0.10860768D-05  0.30454728D-05 -0.19265118D-04
 -0.14771270D-04 -0.73718992D-05  0.28916207D-05  0.22171113D-05  0.11064939D-05
  0.89395922D-09  0.68543123D-09  0.34207822D-09  0.49649768D-04  0.80012873D-05
 -0.26735172D-04  0.62037899D-09  0.25328911D-04  0.34357066D-06 -0.41595451D-04
 -0.22502355D-04  0.22969529D-08 -0.31796883D-08  0.70246222D-02  0.12959056D-01
  0.20919935D-01  0.27231539D-01  0.23236722D-01  0.80230816D-02 -0.17546962D-03
 -0.80873786D-04  0.22677854D-03 -0.19260902D-03 -0.14768038D-03 -0.73702860D-04
 -0.13561808D-03 -0.10398334D-03 -0.51894974D-04 -0.17445693D-08 -0.13376251D-08
 -0.66756865D-09  0.35100057D-03  0.17773548D-03  0.45264643D-04  0.10900919D-08
 -0.34201029D-03 -0.27850227D-03 -0.22834827D-03 -0.11469283D-03 -0.15521380D-08
 -0.13031817D-08 -0.11783260D-04 -0.19986639D-04 -0.22754083D-04 -0.56854558D-06
 -0.43464981D-05 -0.73724835D-05 -0.83933118D-05  0.47278190D-05 -0.13565176D-04
 -0.23009105D-04 -0.26195053D-04 -0.15380667D-05 -0.13566886D-04 -0.23012006D-04
 -0.26198355D-04 -0.15519502D-05 -0.43452038D-05 -0.73702881D-05 -0.83908125D-05
  0.47368753D-05 -0.11782639D-04 -0.19985586D-04 -0.22752883D-04 -0.56226552D-06
 -0.43511460D-05 -0.73803672D-05 -0.84022872D-05  0.41028198D-05 -0.43526943D-05
 -0.73829933D-05 -0.84052770D-05  0.40921264D-05 -0.13276052D-04 -0.22518696D-04
 -0.25636740D-04 -0.16485805D-05
MO    2     MO 0.0        OCC NO =    1.0000000  ORB. ENERGY =  -10.026842
 -0.77995661D-03 -0.14388676D-02 -0.23227785D-02 -0.30235675D-02 -0.25800156D-02
 -0.89081739D-03  0.72880530D-05  0.33590570D-05 -0.94191464D-05 -0.35242112D-04
 -0.27021416D-04 -0.13485581D-04 -0.55402245D-06 -0.42478928D-06 -0.21199962D-06
 -0.44692801D-08 -0.34267605D-08 -0.17101937D-08  0.34988038D-04 -0.64099832D-05
  0.16754144D-06  0.24103352D-08 -0.20082776D-04  0.10107917D-05  0.37958060D-04
  0.16385189D-04  0.34930890D-09 -0.63213530D-08 -0.70134080D-02 -0.12938368D-01
 -0.20886538D-01 -0.27188067D-01 -0.23199627D-01 -0.80102736D-02  0.18883040D-03
  0.87031757D-04 -0.24404613D-03 -0.17191652D-03 -0.13181468D-03 -0.65784765D-04
 -0.14914677D-03 -0.11435628D-03 -0.57071799D-04  0.49899413D-09  0.38259705D-09
  0.19094274D-09 -0.32598453D-03  0.83851014D-04  0.71881409D-04  0.72399649D-09
  0.36205543D-03  0.26526988D-03  0.21774027D-03  0.12454061D-03  0.10109056D-08
 -0.71101246D-09 -0.25673430D+00 -0.47362466D+00 -0.76457705D+00 -0.99525215D+00
 -0.84925046D+00 -0.29322578D+00  0.95145697D-02  0.43852565D-02 -0.12296717D-01
  0.14544390D-04  0.11151716D-04  0.55654877D-05 -0.12762350D-03 -0.97853606D-04
 -0.48835807D-04  0.33016033D-08  0.25314600D-08  0.12633759D-08  0.10685587D-02
 -0.12736568D-04  0.11615074D-03 -0.10020339D-08  0.50137069D-02  0.51973052D-02
  0.51474434D-02 -0.13984006D-04 -0.21659828D-08 -0.14418964D-08 -0.25670728D+00
 -0.47357480D+00 -0.76449656D+00 -0.99514737D+00 -0.84916106D+00 -0.29319491D+00
  0.95135402D-02  0.43847820D-02 -0.12295386D-01  0.14535684D-04  0.11145040D-04
  0.55621563D-05  0.12765435D-03  0.97877262D-04  0.48847614D-04  0.11694290D-07
  0.89664396D-08  0.44748818D-08  0.10681817D-02 -0.12647982D-04 -0.11621151D-03
 -0.59976130D-08  0.50132201D-02  0.51968227D-02  0.51469316D-02  0.13988738D-04
  0.12873779D-07 -0.15254488D-08 -0.70125319D-02 -0.12936752D-01 -0.20883929D-01
 -0.27184671D-01 -0.23196729D-01 -0.80092729D-02  0.18880548D-03  0.87020272D-04
 -0.24401392D-03 -0.17188804D-03 -0.13179285D-03 -0.65773869D-04  0.14912950D-03
  0.11434304D-03  0.57065192D-04  0.28002779D-08  0.21470755D-08  0.10715411D-08
 -0.32596773D-03  0.83846012D-04 -0.71871817D-04 -0.10393957D-08  0.36200503D-03
  0.26522685D-03  0.21771159D-03 -0.12452324D-03 -0.13728753D-07  0.11824217D-07
 -0.77975277D-03 -0.14384916D-02 -0.23221715D-02 -0.30227773D-02 -0.25793413D-02
 -0.89058457D-03  0.72787845D-05  0.33547851D-05 -0.94071677D-05 -0.35245138D-04
 -0.27023736D-04 -0.13486738D-04  0.55392060D-06  0.42471118D-06  0.21196064D-06
 -0.15009751D-08 -0.11508525D-08 -0.57435606D-09  0.34964478D-04 -0.64004002D-05
 -0.17730829D-06 -0.38900361D-09 -0.20079836D-04  0.10098893D-05  0.37956992D-04
 -0.16380436D-04  0.41066105D-08  0.93842503D-09  0.21237453D-03  0.39178954D-03
  0.63246980D-03  0.82328775D-03  0.70251293D-03  0.24256083D-03 -0.41472407D-06
 -0.19114595D-06  0.53599319D-06  0.41636569D-03  0.31924281D-03  0.15932453D-03
  0.10638536D-04  0.81569548D-05  0.40708921D-05 -0.83246833D-09 -0.63828391D-09
 -0.31854841D-09  0.33321410D-04 -0.26568117D-03 -0.65223214D-05 -0.11446729D-08
 -0.16578722D-04 -0.13410863D-04 -0.10708377D-04 -0.16473366D-03 -0.23911191D-08
 -0.56022455D-08  0.21326609D-03  0.39343430D-03  0.63512495D-03  0.82674397D-03
  0.70546213D-03  0.24357912D-03 -0.40915166D-06 -0.18857763D-06  0.52879135D-06
  0.41638451D-03  0.31925723D-03  0.15933173D-03 -0.10679047D-04 -0.81880160D-05
 -0.40863938D-05  0.59216457D-08  0.45403423D-08  0.22659490D-08  0.33607262D-04
 -0.26568004D-03  0.66405677D-05 -0.93386548D-09 -0.16673970D-04 -0.13483364D-04
 -0.10762940D-04  0.16474473D-03  0.27852861D-08  0.57949506D-09  0.27518594D+00
  0.50766432D+00  0.81952763D+00  0.10667815D+01  0.91028656D+00  0.31430007D+00
 -0.10197083D-01 -0.46998263D-02  0.13178804D-01  0.12528667D-04  0.96061871D-05
  0.47941606D-05 -0.14007640D-03 -0.10740170D-03 -0.53600975D-04 -0.82508044D-08
 -0.63261935D-08 -0.31572139D-08 -0.11579280D-02 -0.15622197D-04  0.12799746D-03
  0.24334614D-08 -0.53700160D-02 -0.55686222D-02 -0.55185362D-02  0.12376703D-04
 -0.38621099D-08  0.26070338D-08  0.27513743D+00  0.50757483D+00  0.81938315D+00
  0.10665934D+01  0.91012608D+00  0.31424466D+00 -0.10195242D-01 -0.46989779D-02
  0.13176424D-01  0.12522165D-04  0.96012018D-05  0.47916726D-05  0.14013499D-03
  0.10744662D-03  0.53623393D-04 -0.18450356D-08 -0.14146563D-08 -0.70601264D-09
 -0.11573518D-02 -0.15558275D-04 -0.12811017D-03  0.28100215D-09 -0.53691342D-02
 -0.55677468D-02 -0.55176096D-02 -0.12385938D-04  0.14348776D-07  0.73834313D-09
  0.75170040D-02  0.13867405D-01  0.22386291D-01  0.29140299D-01  0.24865470D-01
  0.85854492D-02 -0.20144224D-03 -0.92844547D-04  0.26034580D-03 -0.18566837D-03
 -0.14235873D-03 -0.71046984D-04  0.15890012D-03  0.12183454D-03  0.60803973D-04
 -0.36075603D-08 -0.27660484D-08 -0.13804520D-08  0.35108559D-03  0.96388546D-04
 -0.75170006D-04  0.27775304D-08 -0.38660674D-03 -0.28519208D-03 -0.23408274D-03
  0.13278091D-03 -0.10980750D-07  0.62430163D-08 -0.46344120D-05 -0.78608399D-05
 -0.89492884D-05  0.15457166D-05  0.83567204D-03  0.15416517D-02  0.24887039D-02
  0.32395530D-02  0.27643165D-02  0.95445204D-03 -0.74582758D-05 -0.34375125D-05
  0.96391439D-05 -0.36667244D-04 -0.28114117D-04 -0.14030915D-04  0.35536919D-06
  0.27247455D-06  0.13598390D-06  0.42883560D-09  0.32880394D-09  0.16409621D-09
 -0.31573962D-04 -0.58488038D-05  0.16742261D-05 -0.30311071D-10  0.21883986D-04
 -0.99001862D-06 -0.40939273D-04  0.17982071D-04  0.36652488D-08  0.35498936D-09
  0.83590830D-03  0.15420876D-02  0.24894075D-02  0.32404689D-02  0.27650980D-02
  0.95472189D-03 -0.74723370D-05 -0.34439933D-05  0.96573167D-05 -0.36665583D-04
 -0.28112844D-04 -0.14030279D-04 -0.35399813D-06 -0.27142331D-06 -0.13545926D-06
  0.10730820D-08  0.82277124D-09  0.41062051D-09 -0.31645798D-04 -0.58783305D-05
 -0.16914137D-05 -0.66126650D-09  0.21890689D-04 -0.98937100D-06 -0.40936975D-04
 -0.17987130D-04  0.13950421D-08 -0.35308164D-08  0.75182931D-02  0.13869783D-01
  0.22390130D-01  0.29145296D-01  0.24869734D-01  0.85869215D-02 -0.20147437D-03
 -0.92859354D-04  0.26038732D-03 -0.18570998D-03 -0.14239063D-03 -0.71062904D-04
 -0.15892710D-03 -0.12185522D-03 -0.60814295D-04 -0.11275830D-09 -0.86455913D-10
 -0.43147560D-10  0.35117098D-03  0.96394235D-04  0.75211541D-04 -0.11923940D-08
 -0.38669055D-03 -0.28525728D-03 -0.23412887D-03 -0.13280954D-03 -0.82577852D-09
 -0.13325787D-08 -0.40996545D-06 -0.69537899D-06 -0.79166440D-06 -0.32910037D-07
 -0.23802982D-06 -0.40374363D-06 -0.45964785D-06 -0.90006553D-05  0.37034891D-05
  0.62818185D-05  0.71516283D-05 -0.16617888D-05  0.37031099D-05  0.62811752D-05
  0.71508960D-05 -0.16604288D-05 -0.23881585D-06 -0.40507688D-06 -0.46116571D-06
 -0.90045726D-05 -0.40728550D-06 -0.69083329D-06 -0.78648929D-06 -0.69276913D-08
 -0.62478546D-07 -0.10597544D-06 -0.12064929D-06  0.93132050D-05 -0.63850559D-07
 -0.10830263D-06 -0.12329872D-06  0.93046244D-05 -0.46338374D-05 -0.78598652D-05
 -0.89481787D-05  0.15550529D-05
MO    3     MO 0.0        OCC NO =    1.0000000  ORB. ENERGY =  -10.026450
 -0.15744763D-02 -0.29046014D-02 -0.46889273D-02 -0.61035901D-02 -0.52082045D-02
 -0.17982679D-02  0.83087766D-04  0.38295075D-04 -0.10738339D-03  0.14678942D-04
  0.11254881D-04  0.56169746D-05  0.40693528D-05  0.31201216D-05  0.15571594D-05
 -0.61783631D-08 -0.47371770D-08 -0.23641833D-08  0.33444595D-03 -0.13529394D-03
 -0.91494654D-04  0.32909940D-08 -0.32898483D-04  0.11569180D-05 -0.42080255D-05
  0.35466468D-04  0.29224976D-08 -0.65741695D-08 -0.76675984D-02 -0.14145222D-01
 -0.22834774D-01 -0.29724091D-01 -0.25363621D-01 -0.87574487D-02  0.20242773D-03
  0.93298754D-04 -0.26161944D-03 -0.24668715D-03 -0.18914406D-03 -0.94396144D-04
 -0.15823170D-03 -0.12132203D-03 -0.60548196D-04 -0.33220101D-08 -0.25471066D-08
 -0.12711847D-08 -0.35883636D-03  0.35356350D-04  0.17945061D-03  0.95054993D-08
  0.47494017D-03  0.38302972D-03  0.26421011D-03  0.16077608D-03  0.13141537D-08
 -0.69922995D-08 -0.26731556D+00 -0.49314500D+00 -0.79608894D+00 -0.10362713D+01
 -0.88425214D+00 -0.30531102D+00  0.10157736D-01  0.46816914D-02 -0.13127951D-01
  0.54376139D-04  0.41692174D-04  0.20807317D-04  0.31822310D-03  0.24399329D-03
  0.12176975D-03  0.18765361D-08  0.14388089D-08  0.71806646D-09  0.33650657D-02
 -0.53804112D-03 -0.61448054D-03 -0.17240837D-07  0.48480885D-02  0.48029173D-02
  0.50899680D-02  0.36570673D-04  0.68688193D-08 -0.57602472D-08  0.26734342D+00
  0.49319640D+00  0.79617191D+00  0.10363793D+01  0.88434430D+00  0.30534284D+00
 -0.10158769D-01 -0.46821676D-02  0.13129287D-01 -0.54381073D-04 -0.41695958D-04
 -0.20809205D-04  0.31821166D-03  0.24398452D-03  0.12176538D-03 -0.97896160D-08
 -0.75060566D-08 -0.37460483D-08 -0.33651748D-02  0.53804392D-03 -0.61446944D-03
 -0.67967380D-10 -0.48486344D-02 -0.48034827D-02 -0.50905260D-02  0.36566834D-04
 -0.92451122D-08  0.10568257D-07  0.76682323D-02  0.14146391D-01  0.22836662D-01
  0.29726548D-01  0.25365718D-01  0.87581727D-02 -0.20244417D-03 -0.93306333D-04
  0.26164070D-03  0.24670530D-03  0.18915798D-03  0.94403088D-04 -0.15824801D-03
 -0.12133453D-03 -0.60554437D-04 -0.16232849D-07 -0.12446319D-07 -0.62115856D-08
  0.35886784D-03 -0.35362726D-04  0.17945826D-03 -0.19970710D-08 -0.47497756D-03
 -0.38305512D-03 -0.26423043D-03  0.16078949D-03  0.31415926D-07 -0.20096453D-07
  0.15743822D-02  0.29044278D-02  0.46886470D-02  0.61032252D-02  0.52078931D-02
  0.17981603D-02 -0.83081933D-04 -0.38292387D-04  0.10737585D-03 -0.14674325D-04
 -0.11251341D-04 -0.56152079D-05  0.40696634D-05  0.31203597D-05  0.15572782D-05
 -0.12592842D-08 -0.96553922D-09 -0.48187174D-09 -0.33445036D-03  0.13529427D-03
 -0.91494045D-04 -0.79567120D-08  0.32904070D-04 -0.11533609D-05  0.42076041D-05
  0.35468403D-04 -0.35167863D-08 -0.80871293D-08 -0.62459955D-02 -0.11522642D-01
 -0.18601117D-01 -0.24213127D-01 -0.20661106D-01 -0.71337832D-02 -0.37230200D-04
 -0.17159365D-04  0.48116651D-04  0.19577711D-05  0.15010947D-05  0.74915144D-06
 -0.28464662D-03 -0.21824898D-03 -0.10892154D-03 -0.29803495D-08 -0.22851430D-08
 -0.11404465D-08 -0.20121164D-02  0.20102015D-06  0.83638007D-03  0.88827900D-08
  0.67186179D-03  0.51018582D-03  0.38284900D-03 -0.11609562D-05  0.18916620D-07
 -0.72525741D-08  0.62457722D-02  0.11522230D-01  0.18600452D-01  0.24212262D-01
  0.20660367D-01  0.71335282D-02  0.37230890D-04  0.17159683D-04 -0.48117543D-04