 Generated by Multiwfn
GAUSSIAN             93 MOL ORBITALS    432 PRIMITIVES       24 NUCLEI
  C    1    (CENTRE  1)   6.89016838  1.34312988 -0.00004475  CHARGE =  6.0
  C    2    (CENTRE  2)   4.66917055  2.64850269  0.00010101  CHARGE =  6.0
  C    3    (CENTRE  3)   2.30331966  1.36039090  0.00008247  CHARGE =  6.0
  C    4    (CENTRE  4)   2.30332187 -1.36039200  0.00004815  CHARGE =  6.0
  C    5    (CENTRE  5)   4.66917375 -2.64850157 -0.00005749  CHARGE =  6.0
  C    6    (CENTRE  6)   6.89017078 -1.34312368 -0.00013804  CHARGE =  6.0
  C    7    (CENTRE  7)  -0.00000030  2.64233317  0.00006707  CHARGE =  6.0
  C    8    (CENTRE  8)   0.00000202 -2.64233561  0.00005932  CHARGE =  6.0
  C    9    (CENTRE  9)  -2.30331913 -1.36039436  0.00005794  CHARGE =  6.0
  C   10    (CENTRE 10)  -2.30332153  1.36038969  0.00001763  CHARGE =  6.0
  C   11    (CENTRE 11)  -4.66917112  2.64850301 -0.00007442  CHARGE =  6.0
  H   12    (CENTRE 12)  -4.66769625  4.69463265 -0.00017015  CHARGE =  1.0
  C   13    (CENTRE 13)  -6.89016936  1.34312789 -0.00012378  CHARGE =  6.0
  C   14    (CENTRE 14)  -6.89016825 -1.34312553 -0.00001671  CHARGE =  6.0
  C   15    (CENTRE 15)  -4.66917220 -2.64850292  0.00006850  CHARGE =  6.0
  H   16    (CENTRE 16)  -0.00001234  4.69017104  0.00009698  CHARGE =  1.0
  H   17    (CENTRE 17)   8.67132548  2.34655340 -0.00010089  CHARGE =  1.0
  H   18    (CENTRE 18)   4.66769069  4.69463276  0.00020577  CHARGE =  1.0
  H   19    (CENTRE 19)   4.66769568 -4.69463091 -0.00007020  CHARGE =  1.0
  H   20    (CENTRE 20)   8.67131820 -2.34656480 -0.00025831  CHARGE =  1.0
  H   21    (CENTRE 21)  -0.00000990 -4.69017306  0.00008644  CHARGE =  1.0
  H   22    (CENTRE 22)  -8.67132020  2.34656261 -0.00019099  CHARGE =  1.0
  H   23    (CENTRE 23)  -8.67131933 -2.34656017 -0.00004866  CHARGE =  1.0
  H   24    (CENTRE 24)  -4.66770265 -4.69463272  0.00016870  CHARGE =  1.0
CENTRE ASSIGNMENTS    1  1  1  1  1  1  1  1  1  1  1  1  1  1  1  1  1  1  1  1
CENTRE ASSIGNMENTS    1  1  1  1  1  1  1  1  2  2  2  2  2  2  2  2  2  2  2  2
CENTRE ASSIGNMENTS    2  2  2  2  2  2  2  2  2  2  2  2  2  2  2  2  3  3  3  3
CENTRE ASSIGNMENTS    3  3  3  3  3  3  3  3  3  3  3  3  3  3  3  3  3  3  3  3
CENTRE ASSIGNMENTS    3  3  3  3  4  4  4  4  4  4  4  4  4  4  4  4  4  4  4  4
CENTRE ASSIGNMENTS    4  4  4  4  4  4  4  4  4  4  4  4  5  5  5  5  5  5  5  5
CENTRE ASSIGNMENTS    5  5  5  5  5  5  5  5  5  5  5  5  5  5  5  5  5  5  5  5
CENTRE ASSIGNMENTS    6  6  6  6  6  6  6  6  6  6  6  6  6  6  6  6  6  6  6  6
CENTRE ASSIGNMENTS    6  6  6  6  6  6  6  6  7  7  7  7  7  7  7  7  7  7  7  7
CENTRE ASSIGNMENTS    7  7  7  7  7  7  7  7  7  7  7  7  7  7  7  7  8  8  8  8
CENTRE ASSIGNMENTS    8  8  8  8  8  8  8  8  8  8  8  8  8  8  8  8  8  8  8  8
CENTRE ASSIGNMENTS    8  8  8  8  9  9  9  9  9  9  9  9  9  9  9  9  9  9  9  9
CENTRE ASSIGNMENTS    9  9  9  9  9  9  9  9  9  9  9  9 10 10 10 10 10 10 10 10
CENTRE ASSIGNMENTS   10 10 10 10 10 10 10 10 10 10 10 10 10 10 10 10 10 10 10 10
CENTRE ASSIGNMENTS   11 11 11 11 11 11 11 11 11 11 11 11 11 11 11 11 11 11 11 11
CENTRE ASSIGNMENTS   11 11 11 11 11 11 11 11 12 12 12 12 13 13 13 13 13 13 13 13
CENTRE ASSIGNMENTS   13 13 13 13 13 13 13 13 13 13 13 13 13 13 13 13 13 13 13 13
CENTRE ASSIGNMENTS   14 14 14 14 14 14 14 14 14 14 14 14 14 14 14 14 14 14 14 14
CENTRE ASSIGNMENTS   14 14 14 14 14 14 14 14 15 15 15 15 15 15 15 15 15 15 15 15
CENTRE ASSIGNMENTS   15 15 15 15 15 15 15 15 15 15 15 15 15 15 15 15 16 16 16 16
CENTRE ASSIGNMENTS   17 17 17 17 18 18 18 18 19 19 19 19 20 20 20 20 21 21 21 21
CENTRE ASSIGNMENTS   22 22 22 22 23 23 23 23 24 24 24 24
TYPE ASSIGNMENTS      1  1  1  1  1  1  1  1  1  2  2  2  3  3  3  4  4  4  1  2
TYPE ASSIGNMENTS      3  4  5  6  7  8  9 10  1  1  1  1  1  1  1  1  1  2  2  2
TYPE ASSIGNMENTS      3  3  3  4  4  4  1  2  3  4  5  6  7  8  9 10  1  1  1  1
TYPE ASSIGNMENTS      1  1  1  1  1  2  2  2  3  3  3  4  4  4  1  2  3  4  5  6
TYPE ASSIGNMENTS      7  8  9 10  1  1  1  1  1  1  1  1  1  2  2  2  3  3  3  4
TYPE ASSIGNMENTS      4  4  1  2  3  4  5  6  7  8  9 10  1  1  1  1  1  1  1  1
TYPE ASSIGNMENTS      1  2  2  2  3  3  3  4  4  4  1  2  3  4  5  6  7  8  9 10
TYPE ASSIGNMENTS      1  1  1  1  1  1  1  1  1  2  2  2  3  3  3  4  4  4  1  2
TYPE ASSIGNMENTS      3  4  5  6  7  8  9 10  1  1  1  1  1  1  1  1  1  2  2  2
TYPE ASSIGNMENTS      3  3  3  4  4  4  1  2  3  4  5  6  7  8  9 10  1  1  1  1
TYPE ASSIGNMENTS      1  1  1  1  1  2  2  2  3  3  3  4  4  4  1  2  3  4  5  6
TYPE ASSIGNMENTS      7  8  9 10  1  1  1  1  1  1  1  1  1  2  2  2  3  3  3  4
TYPE ASSIGNMENTS      4  4  1  2  3  4  5  6  7  8  9 10  1  1  1  1  1  1  1  1
TYPE ASSIGNMENTS      1  2  2  2  3  3  3  4  4  4  1  2  3  4  5  6  7  8  9 10
TYPE ASSIGNMENTS      1  1  1  1  1  1  1  1  1  2  2  2  3  3  3  4  4  4  1  2
TYPE ASSIGNMENTS      3  4  5  6  7  8  9 10  1  1  1  1  1  1  1  1  1  1  1  1
TYPE ASSIGNMENTS      1  2  2  2  3  3  3  4  4  4  1  2  3  4  5  6  7  8  9 10
TYPE ASSIGNMENTS      1  1  1  1  1  1  1  1  1  2  2  2  3  3  3  4  4  4  1  2
TYPE ASSIGNMENTS      3  4  5  6  7  8  9 10  1  1  1  1  1  1  1  1  1  2  2  2
TYPE ASSIGNMENTS      3  3  3  4  4  4  1  2  3  4  5  6  7  8  9 10  1  1  1  1
TYPE ASSIGNMENTS      1  1  1  1  1  1  1  1  1  1  1  1  1  1  1  1  1  1  1  1
TYPE ASSIGNMENTS      1  1  1  1  1  1  1  1  1  1  1  1
EXPONENTS  0.3047525D+04 0.4573695D+03 0.1039487D+03 0.2921016D+02 0.9286663D+01
EXPONENTS  0.3163927D+01 0.7868272D+01 0.1881289D+01 0.5442493D+00 0.7868272D+01
EXPONENTS  0.1881289D+01 0.5442493D+00 0.7868272D+01 0.1881289D+01 0.5442493D+00
EXPONENTS  0.7868272D+01 0.1881289D+01 0.5442493D+00 0.1687145D+00 0.1687145D+00
EXPONENTS  0.1687145D+00 0.1687145D+00 0.8000000D+00 0.8000000D+00 0.8000000D+00
EXPONENTS  0.8000000D+00 0.8000000D+00 0.8000000D+00 0.3047525D+04 0.4573695D+03
EXPONENTS  0.1039487D+03 0.2921016D+02 0.9286663D+01 0.3163927D+01 0.7868272D+01
EXPONENTS  0.1881289D+01 0.5442493D+00 0.7868272D+01 0.1881289D+01 0.5442493D+00
EXPONENTS  0.7868272D+01 0.1881289D+01 0.5442493D+00 0.7868272D+01 0.1881289D+01
EXPONENTS  0.5442493D+00 0.1687145D+00 0.1687145D+00 0.1687145D+00 0.1687145D+00
EXPONENTS  0.8000000D+00 0.8000000D+00 0.8000000D+00 0.8000000D+00 0.8000000D+00
EXPONENTS  0.8000000D+00 0.3047525D+04 0.4573695D+03 0.1039487D+03 0.2921016D+02
EXPONENTS  0.9286663D+01 0.3163927D+01 0.7868272D+01 0.1881289D+01 0.5442493D+00
EXPONENTS  0.7868272D+01 0.1881289D+01 0.5442493D+00 0.7868272D+01 0.1881289D+01
EXPONENTS  0.5442493D+00 0.7868272D+01 0.1881289D+01 0.5442493D+00 0.1687145D+00
EXPONENTS  0.1687145D+00 0.1687145D+00 0.1687145D+00 0.8000000D+00 0.8000000D+00
EXPONENTS  0.8000000D+00 0.8000000D+00 0.8000000D+00 0.8000000D+00 0.3047525D+04
EXPONENTS  0.4573695D+03 0.1039487D+03 0.2921016D+02 0.9286663D+01 0.3163927D+01
EXPONENTS  0.7868272D+01 0.1881289D+01 0.5442493D+00 0.7868272D+01 0.1881289D+01
EXPONENTS  0.5442493D+00 0.7868272D+01 0.1881289D+01 0.5442493D+00 0.7868272D+01
EXPONENTS  0.1881289D+01 0.5442493D+00 0.1687145D+00 0.1687145D+00 0.1687145D+00
EXPONENTS  0.1687145D+00 0.8000000D+00 0.8000000D+00 0.8000000D+00 0.8000000D+00
EXPONENTS  0.8000000D+00 0.8000000D+00 0.3047525D+04 0.4573695D+03 0.1039487D+03
EXPONENTS  0.2921016D+02 0.9286663D+01 0.3163927D+01 0.7868272D+01 0.1881289D+01
EXPONENTS  0.5442493D+00 0.7868272D+01 0.1881289D+01 0.5442493D+00 0.7868272D+01
EXPONENTS  0.1881289D+01 0.5442493D+00 0.7868272D+01 0.1881289D+01 0.5442493D+00
EXPONENTS  0.1687145D+00 0.1687145D+00 0.1687145D+00 0.1687145D+00 0.8000000D+00
EXPONENTS  0.8000000D+00 0.8000000D+00 0.8000000D+00 0.8000000D+00 0.8000000D+00
EXPONENTS  0.3047525D+04 0.4573695D+03 0.1039487D+03 0.2921016D+02 0.9286663D+01
EXPONENTS  0.3163927D+01 0.7868272D+01 0.1881289D+01 0.5442493D+00 0.7868272D+01
EXPONENTS  0.1881289D+01 0.5442493D+00 0.7868272D+01 0.1881289D+01 0.5442493D+00
EXPONENTS  0.7868272D+01 0.1881289D+01 0.5442493D+00 0.1687145D+00 0.1687145D+00
EXPONENTS  0.1687145D+00 0.1687145D+00 0.8000000D+00 0.8000000D+00 0.8000000D+00
EXPONENTS  0.8000000D+00 0.8000000D+00 0.8000000D+00 0.3047525D+04 0.4573695D+03
EXPONENTS  0.1039487D+03 0.2921016D+02 0.9286663D+01 0.3163927D+01 0.7868272D+01
EXPONENTS  0.1881289D+01 0.5442493D+00 0.7868272D+01 0.1881289D+01 0.5442493D+00
EXPONENTS  0.7868272D+01 0.1881289D+01 0.5442493D+00 0.7868272D+01 0.1881289D+01
EXPONENTS  0.5442493D+00 0.1687145D+00 0.1687145D+00 0.1687145D+00 0.1687145D+00
EXPONENTS  0.8000000D+00 0.8000000D+00 0.8000000D+00 0.8000000D+00 0.8000000D+00
EXPONENTS  0.8000000D+00 0.3047525D+04 0.4573695D+03 0.1039487D+03 0.2921016D+02
EXPONENTS  0.9286663D+01 0.3163927D+01 0.7868272D+01 0.1881289D+01 0.5442493D+00
EXPONENTS  0.7868272D+01 0.1881289D+01 0.5442493D+00 0.7868272D+01 0.1881289D+01
EXPONENTS  0.5442493D+00 0.7868272D+01 0.1881289D+01 0.5442493D+00 0.1687145D+00
EXPONENTS  0.1687145D+00 0.1687145D+00 0.1687145D+00 0.8000000D+00 0.8000000D+00
EXPONENTS  0.8000000D+00 0.8000000D+00 0.8000000D+00 0.8000000D+00 0.3047525D+04
EXPONENTS  0.4573695D+03 0.1039487D+03 0.2921016D+02 0.9286663D+01 0.3163927D+01
EXPONENTS  0.7868272D+01 0.1881289D+01 0.5442493D+00 0.7868272D+01 0.1881289D+01
EXPONENTS  0.5442493D+00 0.7868272D+01 0.1881289D+01 0.5442493D+00 0.7868272D+01
EXPONENTS  0.1881289D+01 0.5442493D+00 0.1687145D+00 0.1687145D+00 0.1687145D+00
EXPONENTS  0.1687145D+00 0.8000000D+00 0.8000000D+00 0.8000000D+00 0.8000000D+00
EXPONENTS  0.8000000D+00 0.8000000D+00 0.3047525D+04 0.4573695D+03 0.1039487D+03
EXPONENTS  0.2921016D+02 0.9286663D+01 0.3163927D+01 0.7868272D+01 0.1881289D+01
EXPONENTS  0.5442493D+00 0.7868272D+01 0.1881289D+01 0.5442493D+00 0.7868272D+01
EXPONENTS  0.1881289D+01 0.5442493D+00 0.7868272D+01 0.1881289D+01 0.5442493D+00
EXPONENTS  0.1687145D+00 0.1687145D+00 0.1687145D+00 0.1687145D+00 0.8000000D+00
EXPONENTS  0.8000000D+00 0.8000000D+00 0.8000000D+00 0.8000000D+00 0.8000000D+00
EXPONENTS  0.3047525D+04 0.4573695D+03 0.1039487D+03 0.2921016D+02 0.9286663D+01
EXPONENTS  0.3163927D+01 0.7868272D+01 0.1881289D+01 0.5442493D+00 0.7868272D+01
EXPONENTS  0.1881289D+01 0.5442493D+00 0.7868272D+01 0.1881289D+01 0.5442493D+00
EXPONENTS  0.7868272D+01 0.1881289D+01 0.5442493D+00 0.1687145D+00 0.1687145D+00
EXPONENTS  0.1687145D+00 0.1687145D+00 0.8000000D+00 0.8000000D+00 0.8000000D+00
EXPONENTS  0.8000000D+00 0.8000000D+00 0.8000000D+00 0.1873114D+02 0.2825394D+01
EXPONENTS  0.6401217D+00 0.1612778D+00 0.3047525D+04 0.4573695D+03 0.1039487D+03
EXPONENTS  0.2921016D+02 0.9286663D+01 0.3163927D+01 0.7868272D+01 0.1881289D+01
EXPONENTS  0.5442493D+00 0.7868272D+01 0.1881289D+01 0.5442493D+00 0.7868272D+01
EXPONENTS  0.1881289D+01 0.5442493D+00 0.7868272D+01 0.1881289D+01 0.5442493D+00
EXPONENTS  0.1687145D+00 0.1687145D+00 0.1687145D+00 0.1687145D+00 0.8000000D+00
EXPONENTS  0.8000000D+00 0.8000000D+00 0.8000000D+00 0.8000000D+00 0.8000000D+00
EXPONENTS  0.3047525D+04 0.4573695D+03 0.1039487D+03 0.2921016D+02 0.9286663D+01
EXPONENTS  0.3163927D+01 0.7868272D+01 0.1881289D+01 0.5442493D+00 0.7868272D+01
EXPONENTS  0.1881289D+01 0.5442493D+00 0.7868272D+01 0.1881289D+01 0.5442493D+00
EXPONENTS  0.7868272D+01 0.1881289D+01 0.5442493D+00 0.1687145D+00 0.1687145D+00
EXPONENTS  0.1687145D+00 0.1687145D+00 0.8000000D+00 0.8000000D+00 0.8000000D+00
EXPONENTS  0.8000000D+00 0.8000000D+00 0.8000000D+00 0.3047525D+04 0.4573695D+03
EXPONENTS  0.1039487D+03 0.2921016D+02 0.9286663D+01 0.3163927D+01 0.7868272D+01
EXPONENTS  0.1881289D+01 0.5442493D+00 0.7868272D+01 0.1881289D+01 0.5442493D+00
EXPONENTS  0.7868272D+01 0.1881289D+01 0.5442493D+00 0.7868272D+01 0.1881289D+01
EXPONENTS  0.5442493D+00 0.1687145D+00 0.1687145D+00 0.1687145D+00 0.1687145D+00
EXPONENTS  0.8000000D+00 0.8000000D+00 0.8000000D+00 0.8000000D+00 0.8000000D+00
EXPONENTS  0.8000000D+00 0.1873114D+02 0.2825394D+01 0.6401217D+00 0.1612778D+00
EXPONENTS  0.1873114D+02 0.2825394D+01 0.6401217D+00 0.1612778D+00 0.1873114D+02
EXPONENTS  0.2825394D+01 0.6401217D+00 0.1612778D+00 0.1873114D+02 0.2825394D+01
EXPONENTS  0.6401217D+00 0.1612778D+00 0.1873114D+02 0.2825394D+01 0.6401217D+00
EXPONENTS  0.1612778D+00 0.1873114D+02 0.2825394D+01 0.6401217D+00 0.1612778D+00
EXPONENTS  0.1873114D+02 0.2825394D+01 0.6401217D+00 0.1612778D+00 0.1873114D+02
EXPONENTS  0.2825394D+01 0.6401217D+00 0.1612778D+00 0.1873114D+02 0.2825394D+01
EXPONENTS  0.6401217D+00 0.1612778D+00
MO    1     MO 0.0        OCC NO =    1.0000000  ORB. ENERGY =  -10.378366
 -0.32700614D-05 -0.60326248D-05 -0.97385269D-05 -0.12676668D-04 -0.10817024D-04
 -0.37348585D-05  0.93182038D-05  0.42947516D-05 -0.12042932D-04  0.18026279D-05
  0.13821407D-05  0.68978510D-06 -0.19059647D-04 -0.14613729D-04 -0.72932748D-05
 -0.34125595D-08 -0.26165342D-08 -0.13058339D-08  0.62711882D-04 -0.41415099D-04
  0.11493208D-04  0.26880706D-08  0.84528080D-05 -0.23241591D-04 -0.38094709D-05
  0.37181484D-04  0.27861088D-08 -0.47867268D-08  0.80399599D-04  0.14832156D-03
  0.23943699D-03  0.31167582D-03  0.26595354D-03  0.91827366D-04  0.40187817D-05
  0.18522528D-05 -0.51939102D-05 -0.37945802D-04 -0.29094434D-04 -0.14520162D-04
 -0.63690573D-04 -0.48833892D-04 -0.24371534D-04 -0.11266503D-08 -0.86384402D-09
 -0.43111871D-09  0.27600080D-03 -0.11608120D-03 -0.35982175D-05  0.36415622D-08
  0.86131924D-04  0.34493291D-04  0.10820948D-04 -0.26772891D-05 -0.18042113D-09
 -0.33546614D-08  0.77817239D-02  0.14355761D-01  0.23174650D-01  0.30166508D-01
  0.25741136D-01  0.88877957D-02 -0.61512708D-04 -0.28351151D-04  0.79499586D-04
  0.32953648D-03  0.25266767D-03  0.12609887D-03 -0.13355602D-03 -0.10240228D-03
 -0.51105916D-04  0.43901970D-08  0.33661246D-08  0.16799321D-08  0.18421153D-02
 -0.90181349D-03 -0.34329495D-03 -0.13236386D-07 -0.44314662D-03 -0.42719184D-03
 -0.35743313D-03  0.12479540D-03  0.45249725D-08 -0.21659825D-08 -0.77529405D-02
 -0.14302661D-01 -0.23088930D-01 -0.30054927D-01 -0.25645923D-01 -0.88549210D-02
  0.61035318D-04  0.28131122D-04 -0.78882604D-04 -0.32828352D-03 -0.25170698D-03
 -0.12561943D-03 -0.13322381D-03 -0.10214757D-03 -0.50978797D-04  0.18840989D-08
  0.14446075D-08  0.72096039D-09 -0.18395228D-02  0.90033793D-03 -0.34358000D-03
 -0.11345718D-07  0.44174635D-03  0.42584813D-03  0.35631560D-03  0.12445778D-03
  0.71618795D-09 -0.43065212D-09 -0.80154564D-04 -0.14786952D-03 -0.23870725D-03
 -0.31072592D-03 -0.26514299D-03 -0.91547502D-04 -0.38534967D-05 -0.17760731D-05
  0.49802944D-05  0.37873160D-04  0.29038737D-04  0.14492365D-04 -0.63615536D-04
 -0.48776358D-04 -0.24342821D-04 -0.11453401D-07 -0.87817416D-08 -0.43827046D-08
 -0.27546082D-03  0.11605336D-03 -0.33313364D-05 -0.71741471D-08 -0.85968299D-04
 -0.34343000D-04 -0.10967939D-04 -0.28355897D-05  0.13583074D-07 -0.78619242D-08
  0.32421784D-05  0.59811861D-05  0.96554889D-05  0.12568578D-04  0.10724790D-04
  0.37030123D-05 -0.92462037D-05 -0.42615668D-05  0.11949878D-04 -0.16579265D-05
 -0.12711929D-05 -0.63441433D-06 -0.19061795D-04 -0.14615375D-04 -0.72940965D-05
  0.10143330D-08  0.77772622D-09  0.38813989D-09 -0.62824854D-04  0.41372926D-04
  0.11546497D-04 -0.20360477D-08 -0.84214041D-05  0.23214880D-04  0.37043587D-05
  0.37106221D-04  0.26090693D-08 -0.28578286D-08  0.37702569D+00  0.69553878D+00
  0.11228153D+01  0.14615718D+01  0.12471619D+01  0.43061503D+00 -0.14363938D-01
 -0.66203259D-02  0.18564085D-01  0.22546158D-08  0.17286964D-08  0.86274067D-09
 -0.35275722D-03 -0.27047186D-03 -0.13498441D-03 -0.97981155D-08 -0.75125735D-08
 -0.37493007D-08 -0.33288189D-02 -0.46298498D-08  0.96040765D-03  0.97162069D-08
 -0.74212004D-02 -0.75713773D-02 -0.74827110D-02 -0.56243190D-08  0.42277158D-08
 -0.10445626D-08 -0.37567591D+00 -0.69304870D+00 -0.11187955D+01 -0.14563393D+01
 -0.12426970D+01 -0.42907340D+00  0.14312890D-01  0.65967978D-02 -0.18498110D-01
  0.63525915D-09  0.48707642D-09  0.24308527D-09 -0.35164921D-03 -0.26962231D-03
 -0.13456043D-03  0.63408023D-08  0.48617250D-08  0.24263415D-08  0.33200295D-02
  0.41566790D-08  0.95879751D-03 -0.42924234D-08  0.73945196D-02  0.75442669D-02
  0.74555380D-02 -0.43736450D-08  0.65410646D-08  0.78696489D-08 -0.77528847D-02
 -0.14302558D-01 -0.23088764D-01 -0.30054710D-01 -0.25645739D-01 -0.88548573D-02
  0.61033660D-04  0.28130358D-04 -0.78880460D-04  0.32828260D-03  0.25170627D-03
  0.12561907D-03 -0.13322231D-03 -0.10214642D-03 -0.50978220D-04 -0.73255432D-08
 -0.56167619D-08 -0.28031578D-08 -0.18395197D-02 -0.90033307D-03 -0.34358720D-03
  0.85058307D-08  0.44174454D-03  0.42584685D-03  0.35631405D-03 -0.12445910D-03
  0.92991700D-08  0.55458021D-09  0.77816157D-02  0.14355562D-01  0.23174328D-01
  0.30166089D-01  0.25740778D-01  0.88876721D-02 -0.61509291D-04 -0.28349576D-04
  0.79495171D-04 -0.32953449D-03 -0.25266615D-03 -0.12609812D-03 -0.13355420D-03
 -0.10240089D-03 -0.51105220D-04 -0.10489442D-07 -0.80426386D-08 -0.40138403D-08
  0.18421099D-02  0.90181064D-03 -0.34330081D-03  0.24537974D-07 -0.44314315D-03
 -0.42718953D-03 -0.35743059D-03 -0.12479669D-03  0.34560297D-08 -0.74008123D-08
  0.80398063D-04  0.14831873D-03  0.23943241D-03  0.31166986D-03  0.26594846D-03
  0.91825611D-04  0.40190838D-05  0.18523920D-05 -0.51943006D-05  0.37946654D-04
  0.29095087D-04  0.14520488D-04 -0.63689989D-04 -0.48833444D-04 -0.24371311D-04
  0.11319078D-07  0.86787509D-08  0.43313049D-08  0.27600381D-03  0.11608102D-03
 -0.35988665D-05  0.17865958D-08  0.86132623D-04  0.34493041D-04  0.10820996D-04
  0.26784442D-05  0.80541614D-08 -0.30585655D-08 -0.84083646D-05 -0.14262178D-04
 -0.16236985D-04 -0.24233031D-04 -0.32698980D-05 -0.60323233D-05 -0.97380403D-05
 -0.12676035D-04 -0.10816484D-04 -0.37346719D-05  0.93178370D-05  0.42945825D-05
 -0.12042458D-04 -0.18027160D-05 -0.13822083D-05 -0.68981879D-06 -0.19059529D-04
 -0.14613638D-04 -0.72932294D-05  0.27256463D-09  0.20898527D-09  0.10429830D-09
  0.62709528D-04  0.41413999D-04  0.11493348D-04  0.17822110D-08  0.84526382D-05
 -0.23241699D-04 -0.38091848D-05 -0.37181931D-04  0.42161874D-08  0.59842034D-09
  0.32419948D-05  0.59808474D-05  0.96549422D-05  0.12567866D-04  0.10724183D-04
  0.37028026D-05 -0.92457429D-05 -0.42613544D-05  0.11949283D-04  0.16577223D-05
  0.12710363D-05  0.63433621D-06 -0.19061962D-04 -0.14615503D-04 -0.72941604D-05
  0.23122214D-08  0.17728647D-08  0.88478374D-09 -0.62823983D-04 -0.41372034D-04
  0.11547135D-04 -0.11055944D-08 -0.84211081D-05  0.23215012D-04  0.37038767D-05
 -0.37106329D-04  0.35043106D-08 -0.44989084D-08 -0.80153748D-04 -0.14786801D-03
 -0.23870482D-03 -0.31072275D-03 -0.26514029D-03 -0.91546569D-04 -0.38534330D-05
 -0.17760437D-05  0.49802120D-05 -0.37873259D-04 -0.29038813D-04 -0.14492403D-04
 -0.63614789D-04 -0.48775785D-04 -0.24342535D-04  0.53113776D-08  0.40724275D-08
  0.20324267D-08 -0.27546128D-03 -0.11605371D-03 -0.33306073D-05 -0.45656825D-08
 -0.85968885D-04 -0.34342277D-04 -0.10968172D-04  0.28369210D-05 -0.14735958D-08
 -0.30348069D-08 -0.82416689D-04 -0.13979430D-03 -0.15915087D-03 -0.27192837D-04
 -0.88595873D-07 -0.15027537D-06 -0.17108320D-06  0.13558983D-04 -0.84084193D-05
 -0.14262271D-04 -0.16237091D-04 -0.24232969D-04  0.84137152D-05  0.14271253D-04
  0.16247318D-04  0.24293681D-04  0.95232668D-07  0.16153263D-06  0.18389919D-06
 -0.13491007D-04  0.82207508D-04  0.13943949D-03  0.15874694D-03  0.27676159D-04
 -0.88647824D-07 -0.15036349D-06 -0.17118352D-06  0.13558759D-04  0.95304414D-07
  0.16165432D-06  0.18403773D-06 -0.13490500D-04  0.84137036D-05  0.14271234D-04
  0.16247295D-04  0.24294070D-04
MO    2     MO 0.0        OCC NO =    1.0000000  ORB. ENERGY =  -10.378360
 -0.77645604D-05 -0.14324098D-04 -0.23123535D-04 -0.30099972D-04 -0.25684361D-04
 -0.88681926D-05  0.20048963D-04  0.92405489D-05 -0.25911464D-04  0.40358763D-04
  0.30944540D-04  0.15443494D-04  0.70338596D-06  0.53931174D-06  0.26915436D-06
 -0.46945295D-08 -0.35994674D-08 -0.17963865D-08 -0.31830163D-04 -0.11615433D-04
 -0.14927769D-04  0.18398611D-09  0.87607485D-05 -0.74049505D-05 -0.29309172D-04
  0.20898151D-04 -0.15252653D-08  0.62331040D-09  0.68059772D-04  0.12555699D-03
  0.20268791D-03  0.26383944D-03  0.22513467D-03  0.77733591D-04  0.46106826D-04
  0.21250594D-04 -0.59588884D-04 -0.20256576D-04 -0.15531458D-04 -0.77512861D-05
 -0.20795146D-04 -0.15944399D-04 -0.79573725D-05  0.27941749D-08  0.21423961D-08
  0.10692058D-08  0.15052368D-03 -0.75417702D-05 -0.74534636D-04 -0.25415659D-08
  0.45415730D-04  0.41872617D-04 -0.41038839D-04  0.44129821D-04 -0.12568608D-08
 -0.71255466D-10  0.80110892D-02  0.14778895D-01  0.23857719D-01  0.31055662D-01
  0.26499853D-01  0.91497622D-02 -0.13296231D-03 -0.61282208D-04  0.17184171D-03
  0.34866521D-03  0.26733437D-03  0.13341859D-03 -0.92316073D-04 -0.70782109D-04
 -0.35325233D-04 -0.24685540D-08 -0.18927306D-08 -0.94460524D-09  0.71938592D-03
 -0.41025243D-03  0.80283665D-04 -0.20794647D-08 -0.38947988D-03 -0.37384275D-03
 -0.31096933D-03  0.93889695D-04 -0.34431907D-08  0.20377309D-08  0.80389502D-02
  0.14830293D-01  0.23940692D-01  0.31163667D-01  0.26592014D-01  0.91815833D-02
 -0.13318213D-03 -0.61383523D-04  0.17212581D-03  0.34984445D-03  0.26823854D-03
  0.13386983D-03  0.92794496D-04  0.71148934D-04  0.35508305D-04 -0.34433624D-08
 -0.26401519D-08 -0.13176208D-08  0.72598964D-03 -0.41348270D-03 -0.79051710D-04
  0.54485157D-08 -0.39106673D-03 -0.37537245D-03 -0.31224945D-03 -0.94336690D-04
  0.91055639D-08  0.29510641D-08  0.68347480D-04  0.12608775D-03  0.20354473D-03
  0.26495476D-03  0.22608638D-03  0.78062193D-04  0.46120626D-04  0.21256954D-04
 -0.59606719D-04 -0.20392742D-04 -0.15635861D-04 -0.78033905D-05  0.21023365D-04
  0.16119383D-04  0.80447017D-05  0.58397357D-08  0.44775389D-08  0.22346057D-08
  0.15151068D-03 -0.79575071D-05  0.74545878D-04  0.97153322D-09  0.45724193D-04
  0.41995921D-04 -0.40999540D-04 -0.44119941D-04 -0.70476929D-08  0.97942028D-08
 -0.77763664D-05 -0.14345878D-04 -0.23158695D-04 -0.30145739D-04 -0.25723414D-04
 -0.88816767D-05  0.20082574D-04  0.92560399D-05 -0.25954902D-04  0.40365171D-04
  0.30949453D-04  0.15445946D-04 -0.63521902D-06 -0.48704565D-06 -0.24306992D-06
 -0.59064705D-08 -0.45287070D-08 -0.22601422D-08 -0.31602545D-04 -0.11764845D-04
  0.14888105D-04  0.19229611D-08  0.87910022D-05 -0.74879869D-05 -0.29322903D-04
 -0.21031227D-04 -0.40314727D-08  0.20736758D-08  0.37563894D+00  0.69298049D+00
  0.11186854D+01  0.14561960D+01  0.12425747D+01  0.42903117D+00 -0.14206583D-01
 -0.65478010D-02  0.18360717D-01  0.15218851D-08  0.11668849D-08  0.58235737D-09
 -0.30845299D-03 -0.23650219D-03 -0.11803117D-03 -0.76140010D-08 -0.58379330D-08
 -0.29135377D-08 -0.24450767D-02 -0.52760780D-09  0.44739327D-03  0.46826849D-08
 -0.74253944D-02 -0.75448675D-02 -0.75625299D-02 -0.60219582D-08 -0.22129569D-08
  0.23481719D-08  0.37698885D+00  0.69547081D+00  0.11227055D+01  0.14614290D+01
  0.12470400D+01  0.43057295D+00 -0.14258013D-01 -0.65715052D-02  0.18427187D-01
 -0.10986922D-08 -0.84240752D-09 -0.42042039D-09  0.30971690D-03  0.23747128D-03
  0.11851481D-03 -0.49808108D-08 -0.38189698D-08 -0.19059336D-08 -0.24570017D-02
  0.91561573D-09 -0.45083522D-03 -0.40101034D-09 -0.74519658D-02 -0.75719767D-02
 -0.75893210D-02  0.49967292D-08  0.18345388D-08 -0.66037517D-08  0.80388875D-02
  0.14830178D-01  0.23940505D-01  0.31163424D-01  0.26591806D-01  0.91815117D-02
 -0.13318020D-03 -0.61382630D-04  0.17212330D-03 -0.34984403D-03 -0.26823821D-03
 -0.13386967D-03  0.92793780D-04  0.71148385D-04  0.35508030D-04 -0.66041588D-08
 -0.50636501D-08 -0.25271163D-08  0.72598876D-03  0.41348443D-03 -0.79052250D-04
  0.31168602D-08 -0.39106399D-03 -0.37537172D-03 -0.31224777D-03  0.94336647D-04
  0.68523445D-08 -0.25378810D-08  0.80109764D-02  0.14778687D-01  0.23857383D-01
  0.31055224D-01  0.26499479D-01  0.91496334D-02 -0.13295857D-03 -0.61280482D-04
  0.17183687D-03 -0.34866339D-03 -0.26733297D-03 -0.13341789D-03 -0.92315251D-04
 -0.70781479D-04 -0.35324919D-04 -0.46578484D-08 -0.35713427D-08 -0.17823503D-08
  0.71938684D-03  0.41025071D-03  0.80283053D-04  0.74769106D-08 -0.38947594D-03
 -0.37384060D-03 -0.31096684D-03 -0.93889442D-04 -0.10942191D-07 -0.73472566D-08
  0.68058265D-04  0.12555421D-03  0.20268342D-03  0.26383360D-03  0.22512968D-03
  0.77731870D-04  0.46106668D-04  0.21250521D-04 -0.59588680D-04  0.20257094D-04
  0.15531855D-04  0.77514840D-05 -0.20794752D-04 -0.15944097D-04 -0.79572218D-05
  0.28179350D-08  0.21606138D-08  0.10782977D-08  0.15052270D-03  0.75404391D-05
 -0.74533966D-04  0.19759972D-08  0.45415784D-04  0.41872343D-04 -0.41038584D-04
 -0.44128766D-04  0.70309620D-08 -0.61405094D-08  0.14950129D-05  0.25358249D-05
  0.28869470D-05  0.17010392D-04 -0.77645561D-05 -0.14324090D-04 -0.23123522D-04
 -0.30099955D-04 -0.25684347D-04 -0.88681876D-05  0.20048933D-04  0.92405347D-05
 -0.25911424D-04 -0.40359078D-04 -0.30944782D-04 -0.15443615D-04  0.70340812D-06
  0.53932873D-06  0.26916284D-06 -0.30566540D-08 -0.23436484D-08 -0.11696448D-08
 -0.31829905D-04  0.11615621D-04 -0.14928968D-04  0.72015946D-09  0.87605039D-05
 -0.74048238D-05 -0.29309100D-04 -0.20898321D-04  0.25588107D-08 -0.17623157D-08
 -0.77762546D-05 -0.14345671D-04 -0.23158362D-04 -0.30145306D-04 -0.25723044D-04
 -0.88815489D-05  0.20082346D-04  0.92559349D-05 -0.25954608D-04 -0.40365456D-04
 -0.30949671D-04 -0.15446055D-04 -0.63496494D-06 -0.48685084D-06 -0.24297269D-06
 -0.19916337D-08 -0.15270584D-08 -0.76210917D-09 -0.31605197D-04  0.11764102D-04
  0.14887621D-04  0.45561511D-09  0.87909104D-05 -0.74881522D-05 -0.29322738D-04
  0.21031625D-04  0.15269033D-08 -0.11578079D-08  0.68346511D-04  0.12608597D-03
  0.20354185D-03  0.26495100D-03  0.22608317D-03  0.78061086D-04  0.46120742D-04
  0.21257008D-04 -0.59606869D-04  0.20393313D-04  0.15636299D-04  0.78036091D-05
  0.21023046D-04  0.16119138D-04  0.80445797D-05  0.22962902D-08  0.17606497D-08
  0.87868759D-09  0.15151296D-03  0.79570080D-05  0.74547177D-04 -0.30043336D-08
  0.45724215D-04  0.41995747D-04 -0.40999563D-04  0.44119197D-04 -0.49677898D-09
 -0.23502421D-08 -0.58177955D-04 -0.98680823D-04 -0.11234463D-03  0.13474019D-03
  0.18458296D-05  0.31308764D-05  0.35643921D-05  0.18957563D-04  0.14948993D-05
  0.25356321D-05  0.28867275D-05  0.17011017D-04  0.14646885D-05  0.24843889D-05
  0.28283889D-05  0.16923589D-04  0.18456124D-05  0.31305080D-05  0.35639727D-05
  0.19006728D-04 -0.58473166D-04 -0.99181556D-04 -0.11291470D-03  0.13464184D-03
  0.18459349D-05  0.31310549D-05  0.35645953D-05  0.18957906D-04  0.18456147D-05
  0.31305119D-05  0.35639772D-05  0.19006494D-04  0.14648915D-05  0.24847332D-05
  0.28287809D-05  0.16923710D-04
MO    3     MO 0.0        OCC NO =    1.0000000  ORB. ENERGY =  -10.365505
  0.28794904D-03  0.53120974D-03  0.85753724D-03  0.11162587D-02  0.95250556D-03
  0.32887728D-03  0.13227048D-04  0.60963344D-05 -0.17094758D-04  0.35168586D-04
  0.26965041D-04  0.13457445D-04 -0.55544035D-06 -0.42587643D-06 -0.21254219D-06
  0.44947075D-08  0.34462566D-08  0.17199236D-08 -0.17077302D-04  0.15675465D-05
  0.23935466D-05 -0.21190295D-08  0.29271203D-04  0.66064318D-05 -0.28144813D-04
 -0.14186199D-04 -0.31447883D-09  0.60790287D-08  0.11771263D-01  0.21715682D-01
  0.35055844D-01  0.45632293D-01  0.38938118D-01  0.13444396D-01 -0.36563216D-03
 -0.16851953D-03  0.47254635D-03  0.17450236D-03  0.13379734D-03  0.66774252D-04
  0.13882477D-03  0.10644203D-03  0.53122032D-04 -0.99462361D-09 -0.76261430D-09
 -0.38059798D-09  0.29962258D-03 -0.91487386D-04 -0.60714261D-04 -0.46757974D-10
 -0.45148220D-03 -0.36125204D-03 -0.31430268D-03 -0.12021600D-03 -0.11805791D-08
  0.94317487D-09  0.26667631D+00  0.49196572D+00  0.79418522D+00  0.10337932D+01
  0.88213759D+00  0.30458091D+00 -0.99044695D-02 -0.45649610D-02  0.12800627D-01
 -0.10852981D-03 -0.83213774D-04 -0.41529505D-04  0.16917792D-03  0.12971490D-03
  0.64736827D-04 -0.48676700D-08 -0.37322206D-08 -0.18626397D-08 -0.11093009D-02
  0.31180314D-04 -0.12614258D-03  0.84663928D-09 -0.52227383D-02 -0.54194831D-02
 -0.53700190D-02 -0.51686430D-05  0.31859146D-08  0.24648152D-09  0.26667956D+00
  0.49197171D+00  0.79419488D+00  0.10338058D+01  0.88214833D+00  0.30458462D+00
 -0.99045919D-02 -0.45650174D-02  0.12800785D-01 -0.10853073D-03 -0.83214481D-04
 -0.41529858D-04 -0.16917386D-03 -0.12971178D-03 -0.64735272D-04 -0.14959557D-07
 -0.11470039D-07 -0.57243534D-08 -0.11093280D-02  0.31175539D-04  0.12613477D-03
  0.62530044D-08 -0.52227981D-02 -0.54195427D-02 -0.53700820D-02  0.51683577D-05
 -0.13118268D-07  0.14346085D-08  0.11771138D-01  0.21715452D-01  0.35055472D-01
  0.45631809D-01  0.38937705D-01  0.13444254D-01 -0.36562631D-03 -0.16851683D-03
  0.47253878D-03  0.17450400D-03  0.13379860D-03  0.66774878D-04 -0.13882635D-03
 -0.10644324D-03 -0.53122637D-04 -0.26551794D-08 -0.20358232D-08 -0.10160184D-08
  0.29963327D-03 -0.91487118D-04  0.60718727D-04  0.10127290D-08 -0.45148350D-03
 -0.36125146D-03 -0.31430140D-03  0.12021717D-03  0.13068081D-07 -0.11896626D-07
  0.28794397D-03  0.53120040D-03  0.85752214D-03  0.11162390D-02  0.95248879D-03
  0.32887149D-03  0.13226750D-04  0.60961968D-05 -0.17094372D-04  0.35169097D-04
  0.26965433D-04  0.13457641D-04  0.55552954D-06  0.42594482D-06  0.21257632D-06
  0.15693758D-08  0.12032978D-08  0.60052994D-09 -0.17084006D-04  0.15699127D-05
 -0.23937516D-05  0.60916790D-09  0.29271924D-04  0.66071131D-05 -0.28144078D-04
  0.14186327D-04 -0.42292812D-08 -0.96342081D-09 -0.32418700D-04 -0.59806171D-04
 -0.96545703D-04 -0.12567382D-03 -0.10723770D-03 -0.37026600D-04  0.18390703D-05
  0.84762583D-06 -0.23768313D-05 -0.43542688D-03 -0.33385771D-03 -0.16661840D-03
  0.92313119D-06  0.70779845D-06  0.35324103D-06  0.73240538D-09  0.56156199D-09
  0.28025879D-09  0.30887739D-05  0.26940574D-03 -0.59297451D-06  0.12183855D-08
 -0.45757756D-06 -0.12339733D-06  0.12656884D-06  0.19420088D-03  0.29743268D-08
  0.57774622D-08 -0.32357808D-04 -0.59693838D-04 -0.96364363D-04 -0.12543777D-03
 -0.10703628D-03 -0.36957054D-04  0.18356498D-05  0.84604934D-06 -0.23724107D-05