 Generated by Multiwfn
GAUSSIAN             47 MOL ORBITALS    432 PRIMITIVES       24 NUCLEI
  C    1    (CENTRE  1)   6.89016838  1.34312988 -0.00004475  CHARGE =  6.0
  C    2    (CENTRE  2)   4.66917055  2.64850269  0.00010101  CHARGE =  6.0
  C    3    (CENTRE  3)   2.30331966  1.36039090  0.00008247  CHARGE =  6.0
  C    4    (CENTRE  4)   2.30332187 -1.36039200  0.00004815  CHARGE =  6.0
  C    5    (CENTRE  5)   4.66917375 -2.64850157 -0.00005749  CHARGE =  6.0
  C    6    (CENTRE  6)   6.89017078 -1.34312368 -0.00013804  CHARGE =  6.0
  C    7    (CENTRE  7)  -0.00000030  2.64233317  0.00006707  CHARGE =  6.0
  C    8    (CENTRE  8)   0.00000202 -2.64233561  0.00005932  CHARGE =  6.0
  C    9    (CENTRE  9)  -2.30331913 -1.36039436  0.00005794  CHARGE =  6.0
  C   10    (CENTRE 10)  -2.30332153  1.36038969  0.00001763  CHARGE =  6.0
  C   11    (CENTRE 11)  -4.66917112  2.64850301 -0.00007442  CHARGE =  6.0
  H   12    (CENTRE 12)  -4.66769625  4.69463265 -0.00017015  CHARGE =  1.0
  C   13    (CENTRE 13)  -6.89016936  1.34312789 -0.00012378  CHARGE =  6.0
  C   14    (CENTRE 14)  -6.89016825 -1.34312553 -0.00001671  CHARGE =  6.0
  C   15    (CENTRE 15)  -4.66917220 -2.64850292  0.00006850  CHARGE =  6.0
  H   16    (CENTRE 16)  -0.00001234  4.69017104  0.00009698  CHARGE =  1.0
  H   17    (CENTRE 17)   8.67132548  2.34655340 -0.00010089  CHARGE =  1.0
  H   18    (CENTRE 18)   4.66769069  4.69463276  0.00020577  CHARGE =  1.0
  H   19    (CENTRE 19)   4.66769568 -4.69463091 -0.00007020  CHARGE =  1.0
  H   20    (CENTRE 20)   8.67131820 -2.34656480 -0.00025831  CHARGE =  1.0
  H   21    (CENTRE 21)  -0.00000990 -4.69017306  0.00008644  CHARGE =  1.0
  H   22    (CENTRE 22)  -8.67132020  2.34656261 -0.00019099  CHARGE =  1.0
  H   23    (CENTRE 23)  -8.67131933 -2.34656017 -0.00004866  CHARGE =  1.0
  H   24    (CENTRE 24)  -4.66770265 -4.69463272  0.00016870  CHARGE =  1.0
CENTRE ASSIGNMENTS    1  1  1  1  1  1  1  1  1  1  1  1  1  1  1  1  1  1  1  1
CENTRE ASSIGNMENTS    1  1  1  1  1  1  1  1  2  2  2  2  2  2  2  2  2  2  2  2
CENTRE ASSIGNMENTS    2  2  2  2  2  2  2  2  2  2  2  2  2  2  2  2  3  3  3  3
CENTRE ASSIGNMENTS    3  3  3  3  3  3  3  3  3  3  3  3  3  3  3  3  3  3  3  3
CENTRE ASSIGNMENTS    3  3  3  3  4  4  4  4  4  4  4  4  4  4  4  4  4  4  4  4
CENTRE ASSIGNMENTS    4  4  4  4  4  4  4  4  4  4  4  4  5  5  5  5  5  5  5  5
CENTRE ASSIGNMENTS    5  5  5  5  5  5  5  5  5  5  5  5  5  5  5  5  5  5  5  5
CENTRE ASSIGNMENTS    6  6  6  6  6  6  6  6  6  6  6  6  6  6  6  6  6  6  6  6
CENTRE ASSIGNMENTS    6  6  6  6  6  6  6  6  7  7  7  7  7  7  7  7  7  7  7  7
CENTRE ASSIGNMENTS    7  7  7  7  7  7  7  7  7  7  7  7  7  7  7  7  8  8  8  8
CENTRE ASSIGNMENTS    8  8  8  8  8  8  8  8  8  8  8  8  8  8  8  8  8  8  8  8
CENTRE ASSIGNMENTS    8  8  8  8  9  9  9  9  9  9  9  9  9  9  9  9  9  9  9  9
CENTRE ASSIGNMENTS    9  9  9  9  9  9  9  9  9  9  9  9 10 10 10 10 10 10 10 10
CENTRE ASSIGNMENTS   10 10 10 10 10 10 10 10 10 10 10 10 10 10 10 10 10 10 10 10
CENTRE ASSIGNMENTS   11 11 11 11 11 11 11 11 11 11 11 11 11 11 11 11 11 11 11 11
CENTRE ASSIGNMENTS   11 11 11 11 11 11 11 11 12 12 12 12 13 13 13 13 13 13 13 13
CENTRE ASSIGNMENTS   13 13 13 13 13 13 13 13 13 13 13 13 13 13 13 13 13 13 13 13
CENTRE ASSIGNMENTS   14 14 14 14 14 14 14 14 14 14 14 14 14 14 14 14 14 14 14 14
CENTRE ASSIGNMENTS   14 14 14 14 14 14 14 14 15 15 15 15 15 15 15 15 15 15 15 15
CENTRE ASSIGNMENTS   15 15 15 15 15 15 15 15 15 15 15 15 15 15 15 15 16 16 16 16
CENTRE ASSIGNMENTS   17 17 17 17 18 18 18 18 19 19 19 19 20 20 20 20 21 21 21 21
CENTRE ASSIGNMENTS   22 22 22 22 23 23 23 23 24 24 24 24
TYPE ASSIGNMENTS      1  1  1  1  1  1  1  1  1  2  2  2  3  3  3  4  4  4  1  2
TYPE ASSIGNMENTS      3  4  5  6  7  8  9 10  1  1  1  1  1  1  1  1  1  2  2  2
TYPE ASSIGNMENTS      3  3  3  4  4  4  1  2  3  4  5  6  7  8  9 10  1  1  1  1
TYPE ASSIGNMENTS      1  1  1  1  1  2  2  2  3  3  3  4  4  4  1  2  3  4  5  6
TYPE ASSIGNMENTS      7  8  9 10  1  1  1  1  1  1  1  1  1  2  2  2  3  3  3  4
TYPE ASSIGNMENTS      4  4  1  2  3  4  5  6  7  8  9 10  1  1  1  1  1  1  1  1
TYPE ASSIGNMENTS      1  2  2  2  3  3  3  4  4  4  1  2  3  4  5  6  7  8  9 10
TYPE ASSIGNMENTS      1  1  1  1  1  1  1  1  1  2  2  2  3  3  3  4  4  4  1  2
TYPE ASSIGNMENTS      3  4  5  6  7  8  9 10  1  1  1  1  1  1  1  1  1  2  2  2
TYPE ASSIGNMENTS      3  3  3  4  4  4  1  2  3  4  5  6  7  8  9 10  1  1  1  1
TYPE ASSIGNMENTS      1  1  1  1  1  2  2  2  3  3  3  4  4  4  1  2  3  4  5  6
TYPE ASSIGNMENTS      7  8  9 10  1  1  1  1  1  1  1  1  1  2  2  2  3  3  3  4
TYPE ASSIGNMENTS      4  4  1  2  3  4  5  6  7  8  9 10  1  1  1  1  1  1  1  1
TYPE ASSIGNMENTS      1  2  2  2  3  3  3  4  4  4  1  2  3  4  5  6  7  8  9 10
TYPE ASSIGNMENTS      1  1  1  1  1  1  1  1  1  2  2  2  3  3  3  4  4  4  1  2
TYPE ASSIGNMENTS      3  4  5  6  7  8  9 10  1  1  1  1  1  1  1  1  1  1  1  1
TYPE ASSIGNMENTS      1  2  2  2  3  3  3  4  4  4  1  2  3  4  5  6  7  8  9 10
TYPE ASSIGNMENTS      1  1  1  1  1  1  1  1  1  2  2  2  3  3  3  4  4  4  1  2
TYPE ASSIGNMENTS      3  4  5  6  7  8  9 10  1  1  1  1  1  1  1  1  1  2  2  2
TYPE ASSIGNMENTS      3  3  3  4  4  4  1  2  3  4  5  6  7  8  9 10  1  1  1  1
TYPE ASSIGNMENTS      1  1  1  1  1  1  1  1  1  1  1  1  1  1  1  1  1  1  1  1
TYPE ASSIGNMENTS      1  1  1  1  1  1  1  1  1  1  1  1
EXPONENTS  0.3047525D+04 0.4573695D+03 0.1039487D+03 0.2921016D+02 0.9286663D+01
EXPONENTS  0.3163927D+01 0.7868272D+01 0.1881289D+01 0.5442493D+00 0.7868272D+01
EXPONENTS  0.1881289D+01 0.5442493D+00 0.7868272D+01 0.1881289D+01 0.5442493D+00
EXPONENTS  0.7868272D+01 0.1881289D+01 0.5442493D+00 0.1687145D+00 0.1687145D+00
EXPONENTS  0.1687145D+00 0.1687145D+00 0.8000000D+00 0.8000000D+00 0.8000000D+00
EXPONENTS  0.8000000D+00 0.8000000D+00 0.8000000D+00 0.3047525D+04 0.4573695D+03
EXPONENTS  0.1039487D+03 0.2921016D+02 0.9286663D+01 0.3163927D+01 0.7868272D+01
EXPONENTS  0.1881289D+01 0.5442493D+00 0.7868272D+01 0.1881289D+01 0.5442493D+00
EXPONENTS  0.7868272D+01 0.1881289D+01 0.5442493D+00 0.7868272D+01 0.1881289D+01
EXPONENTS  0.5442493D+00 0.1687145D+00 0.1687145D+00 0.1687145D+00 0.1687145D+00
EXPONENTS  0.8000000D+00 0.8000000D+00 0.8000000D+00 0.8000000D+00 0.8000000D+00
EXPONENTS  0.8000000D+00 0.3047525D+04 0.4573695D+03 0.1039487D+03 0.2921016D+02
EXPONENTS  0.9286663D+01 0.3163927D+01 0.7868272D+01 0.1881289D+01 0.5442493D+00
EXPONENTS  0.7868272D+01 0.1881289D+01 0.5442493D+00 0.7868272D+01 0.1881289D+01
EXPONENTS  0.5442493D+00 0.7868272D+01 0.1881289D+01 0.5442493D+00 0.1687145D+00
EXPONENTS  0.1687145D+00 0.1687145D+00 0.1687145D+00 0.8000000D+00 0.8000000D+00
EXPONENTS  0.8000000D+00 0.8000000D+00 0.8000000D+00 0.8000000D+00 0.3047525D+04
EXPONENTS  0.4573695D+03 0.1039487D+03 0.2921016D+02 0.9286663D+01 0.3163927D+01
EXPONENTS  0.7868272D+01 0.1881289D+01 0.5442493D+00 0.7868272D+01 0.1881289D+01
EXPONENTS  0.5442493D+00 0.7868272D+01 0.1881289D+01 0.5442493D+00 0.7868272D+01
EXPONENTS  0.1881289D+01 0.5442493D+00 0.1687145D+00 0.1687145D+00 0.1687145D+00
EXPONENTS  0.1687145D+00 0.8000000D+00 0.8000000D+00 0.8000000D+00 0.8000000D+00
EXPONENTS  0.8000000D+00 0.8000000D+00 0.3047525D+04 0.4573695D+03 0.1039487D+03
EXPONENTS  0.2921016D+02 0.9286663D+01 0.3163927D+01 0.7868272D+01 0.1881289D+01
EXPONENTS  0.5442493D+00 0.7868272D+01 0.1881289D+01 0.5442493D+00 0.7868272D+01
EXPONENTS  0.1881289D+01 0.5442493D+00 0.7868272D+01 0.1881289D+01 0.5442493D+00
EXPONENTS  0.1687145D+00 0.1687145D+00 0.1687145D+00 0.1687145D+00 0.8000000D+00
EXPONENTS  0.8000000D+00 0.8000000D+00 0.8000000D+00 0.8000000D+00 0.8000000D+00
EXPONENTS  0.3047525D+04 0.4573695D+03 0.1039487D+03 0.2921016D+02 0.9286663D+01
EXPONENTS  0.3163927D+01 0.7868272D+01 0.1881289D+01 0.5442493D+00 0.7868272D+01
EXPONENTS  0.1881289D+01 0.5442493D+00 0.7868272D+01 0.1881289D+01 0.5442493D+00
EXPONENTS  0.7868272D+01 0.1881289D+01 0.5442493D+00 0.1687145D+00 0.1687145D+00
EXPONENTS  0.1687145D+00 0.1687145D+00 0.8000000D+00 0.8000000D+00 0.8000000D+00
EXPONENTS  0.8000000D+00 0.8000000D+00 0.8000000D+00 0.3047525D+04 0.4573695D+03
EXPONENTS  0.1039487D+03 0.2921016D+02 0.9286663D+01 0.3163927D+01 0.7868272D+01
EXPONENTS  0.1881289D+01 0.5442493D+00 0.7868272D+01 0.1881289D+01 0.5442493D+00
EXPONENTS  0.7868272D+01 0.1881289D+01 0.5442493D+00 0.7868272D+01 0.1881289D+01
EXPONENTS  0.5442493D+00 0.1687145D+00 0.1687145D+00 0.1687145D+00 0.1687145D+00
EXPONENTS  0.8000000D+00 0.8000000D+00 0.8000000D+00 0.8000000D+00 0.8000000D+00
EXPONENTS  0.8000000D+00 0.3047525D+04 0.4573695D+03 0.1039487D+03 0.2921016D+02
EXPONENTS  0.9286663D+01 0.3163927D+01 0.7868272D+01 0.1881289D+01 0.5442493D+00
EXPONENTS  0.7868272D+01 0.1881289D+01 0.5442493D+00 0.7868272D+01 0.1881289D+01
EXPONENTS  0.5442493D+00 0.7868272D+01 0.1881289D+01 0.5442493D+00 0.1687145D+00
EXPONENTS  0.1687145D+00 0.1687145D+00 0.1687145D+00 0.8000000D+00 0.8000000D+00
EXPONENTS  0.8000000D+00 0.8000000D+00 0.8000000D+00 0.8000000D+00 0.3047525D+04
EXPONENTS  0.4573695D+03 0.1039487D+03 0.2921016D+02 0.9286663D+01 0.3163927D+01
EXPONENTS  0.7868272D+01 0.1881289D+01 0.5442493D+00 0.7868272D+01 0.1881289D+01
EXPONENTS  0.5442493D+00 0.7868272D+01 0.1881289D+01 0.5442493D+00 0.7868272D+01
EXPONENTS  0.1881289D+01 0.5442493D+00 0.1687145D+00 0.1687145D+00 0.1687145D+00
EXPONENTS  0.1687145D+00 0.8000000D+00 0.8000000D+00 0.8000000D+00 0.8000000D+00
EXPONENTS  0.8000000D+00 0.8000000D+00 0.3047525D+04 0.4573695D+03 0.1039487D+03
EXPONENTS  0.2921016D+02 0.9286663D+01 0.3163927D+01 0.7868272D+01 0.1881289D+01
EXPONENTS  0.5442493D+00 0.7868272D+01 0.1881289D+01 0.5442493D+00 0.7868272D+01
EXPONENTS  0.1881289D+01 0.5442493D+00 0.7868272D+01 0.1881289D+01 0.5442493D+00
EXPONENTS  0.1687145D+00 0.1687145D+00 0.1687145D+00 0.1687145D+00 0.8000000D+00
EXPONENTS  0.8000000D+00 0.8000000D+00 0.8000000D+00 0.8000000D+00 0.8000000D+00
EXPONENTS  0.3047525D+04 0.4573695D+03 0.1039487D+03 0.2921016D+02 0.9286663D+01
EXPONENTS  0.3163927D+01 0.7868272D+01 0.1881289D+01 0.5442493D+00 0.7868272D+01
EXPONENTS  0.1881289D+01 0.5442493D+00 0.7868272D+01 0.1881289D+01 0.5442493D+00
EXPONENTS  0.7868272D+01 0.1881289D+01 0.5442493D+00 0.1687145D+00 0.1687145D+00
EXPONENTS  0.1687145D+00 0.1687145D+00 0.8000000D+00 0.8000000D+00 0.8000000D+00
EXPONENTS  0.8000000D+00 0.8000000D+00 0.8000000D+00 0.1873114D+02 0.2825394D+01
EXPONENTS  0.6401217D+00 0.1612778D+00 0.3047525D+04 0.4573695D+03 0.1039487D+03
EXPONENTS  0.2921016D+02 0.9286663D+01 0.3163927D+01 0.7868272D+01 0.1881289D+01
EXPONENTS  0.5442493D+00 0.7868272D+01 0.1881289D+01 0.5442493D+00 0.7868272D+01
EXPONENTS  0.1881289D+01 0.5442493D+00 0.7868272D+01 0.1881289D+01 0.5442493D+00
EXPONENTS  0.1687145D+00 0.1687145D+00 0.1687145D+00 0.1687145D+00 0.8000000D+00
EXPONENTS  0.8000000D+00 0.8000000D+00 0.8000000D+00 0.8000000D+00 0.8000000D+00
EXPONENTS  0.3047525D+04 0.4573695D+03 0.1039487D+03 0.2921016D+02 0.9286663D+01
EXPONENTS  0.3163927D+01 0.7868272D+01 0.1881289D+01 0.5442493D+00 0.7868272D+01
EXPONENTS  0.1881289D+01 0.5442493D+00 0.7868272D+01 0.1881289D+01 0.5442493D+00
EXPONENTS  0.7868272D+01 0.1881289D+01 0.5442493D+00 0.1687145D+00 0.1687145D+00
EXPONENTS  0.1687145D+00 0.1687145D+00 0.8000000D+00 0.8000000D+00 0.8000000D+00
EXPONENTS  0.8000000D+00 0.8000000D+00 0.8000000D+00 0.3047525D+04 0.4573695D+03
EXPONENTS  0.1039487D+03 0.2921016D+02 0.9286663D+01 0.3163927D+01 0.7868272D+01
EXPONENTS  0.1881289D+01 0.5442493D+00 0.7868272D+01 0.1881289D+01 0.5442493D+00
EXPONENTS  0.7868272D+01 0.1881289D+01 0.5442493D+00 0.7868272D+01 0.1881289D+01
EXPONENTS  0.5442493D+00 0.1687145D+00 0.1687145D+00 0.1687145D+00 0.1687145D+00
EXPONENTS  0.8000000D+00 0.8000000D+00 0.8000000D+00 0.8000000D+00 0.8000000D+00
EXPONENTS  0.8000000D+00 0.1873114D+02 0.2825394D+01 0.6401217D+00 0.1612778D+00
EXPONENTS  0.1873114D+02 0.2825394D+01 0.6401217D+00 0.1612778D+00 0.1873114D+02
EXPONENTS  0.2825394D+01 0.6401217D+00 0.1612778D+00 0.1873114D+02 0.2825394D+01
EXPONENTS  0.6401217D+00 0.1612778D+00 0.1873114D+02 0.2825394D+01 0.6401217D+00
EXPONENTS  0.1612778D+00 0.1873114D+02 0.2825394D+01 0.6401217D+00 0.1612778D+00
EXPONENTS  0.1873114D+02 0.2825394D+01 0.6401217D+00 0.1612778D+00 0.1873114D+02
EXPONENTS  0.2825394D+01 0.6401217D+00 0.1612778D+00 0.1873114D+02 0.2825394D+01
EXPONENTS  0.6401217D+00 0.1612778D+00
MO    1     MO 0.0        OCC NO =    2.0000000  ORB. ENERGY =  -10.195210
  0.27378234D-03  0.50507496D-03  0.81534760D-03  0.10613403D-02  0.90564361D-03
  0.31269697D-03  0.18107036D-04  0.83455165D-05 -0.23401699D-04  0.21827690D-04
  0.16736088D-04  0.83524808D-05 -0.29962997D-05 -0.22973726D-05 -0.11465499D-05
  0.44288660D-08  0.33957736D-08  0.16947290D-08  0.52061183D-04 -0.92779886D-05
  0.26614990D-04 -0.10673095D-09  0.36514886D-04  0.10384253D-04 -0.32845335D-04
 -0.22013509D-04 -0.24327687D-08  0.69772332D-08  0.77264209D-02  0.14253738D-01
  0.23009952D-01  0.29952121D-01  0.25558199D-01  0.88246320D-02 -0.19662672D-03
 -0.90625074D-04  0.25412217D-03  0.19563920D-03  0.15000373D-03  0.74862374D-04
  0.13614529D-03  0.10438757D-03  0.52096715D-04 -0.21407022D-08 -0.16413546D-08
 -0.81915100D-09  0.36348829D-03 -0.18235643D-03 -0.47791304D-04  0.28681409D-08
 -0.35758026D-03 -0.29251388D-03 -0.24682979D-03 -0.11611353D-03  0.15970041D-09
 -0.19526584D-09  0.26658608D+00  0.49179926D+00  0.79391650D+00  0.10334434D+01
  0.88183912D+00  0.30447786D+00 -0.98831249D-02 -0.45551232D-02  0.12773041D-01
  0.27845756D-04  0.21350360D-04  0.10655326D-04  0.19356251D-03  0.14841146D-03
  0.74067719D-04  0.35972368D-08  0.27581330D-08  0.13765017D-08 -0.12660735D-02
  0.29507714D-04 -0.17137423D-03 -0.38841096D-08 -0.51816359D-02 -0.53997489D-02
 -0.53853418D-02 -0.25353507D-04  0.69233736D-08  0.10478201D-08  0.26657628D+00
  0.49178118D+00  0.79388731D+00  0.10334054D+01  0.88180669D+00  0.30446666D+00
 -0.98827540D-02 -0.45549523D-02  0.12772562D-01  0.27842557D-04  0.21347907D-04
  0.10654102D-04 -0.19357277D-03 -0.14841932D-03 -0.74071644D-04 -0.12940177D-07
 -0.99217070D-08 -0.49516271D-08 -0.12659919D-02  0.29530224D-04  0.17139688D-03
  0.96465531D-08 -0.51814529D-02 -0.53995676D-02 -0.53851508D-02  0.25351909D-04
 -0.12526410D-07 -0.18773900D-08  0.77259905D-02  0.14252944D-01  0.23008671D-01
  0.29950453D-01  0.25556776D-01  0.88241405D-02 -0.19661496D-03 -0.90619657D-04
  0.25410698D-03  0.19563437D-03  0.15000002D-03  0.74860524D-04 -0.13614094D-03
 -0.10438424D-03 -0.52095051D-04 -0.80875750D-08 -0.62010395D-08 -0.30947533D-08
  0.36344850D-03 -0.18235626D-03  0.47772178D-04  0.53198798D-08 -0.35756062D-03
 -0.29249942D-03 -0.24681659D-03  0.11610784D-03  0.13570765D-07 -0.13009802D-07
  0.27375129D-03  0.50501768D-03  0.81525513D-03  0.10612199D-02  0.90554090D-03
  0.31266151D-03  0.18110474D-04  0.83471008D-05 -0.23406142D-04  0.21827325D-04
  0.16735808D-04  0.83523413D-05  0.29953109D-05  0.22966144D-05  0.11461716D-05
  0.32879753D-08  0.25210109D-08  0.12581611D-08  0.52089193D-04 -0.92905815D-05
 -0.26610166D-04 -0.29182473D-10  0.36513571D-04  0.10384446D-04 -0.32846942D-04
  0.22013739D-04 -0.44749950D-08 -0.14290571D-08  0.18828988D-01  0.34735806D-01
  0.56074362D-01  0.72992158D-01  0.62284341D-01  0.21505286D-01 -0.48560010D-03
 -0.22381264D-03  0.62759401D-03 -0.13311997D-05 -0.10206795D-05 -0.50939059D-06
  0.29894948D-03  0.22921550D-03  0.11439460D-03  0.12023241D-08  0.92186583D-09
  0.46007566D-09  0.88706808D-03  0.84583922D-06 -0.17397721D-03 -0.76207188D-09
 -0.72669442D-03 -0.63650110D-03 -0.56300937D-03  0.53572901D-06 -0.42174790D-08
  0.74065600D-09  0.18829092D-01  0.34735997D-01  0.56074670D-01  0.72992559D-01
  0.62284683D-01  0.21505404D-01 -0.48560070D-03 -0.22381292D-03  0.62759479D-03
 -0.13083783D-05 -0.10031815D-05 -0.50065788D-06 -0.29895261D-03 -0.22921790D-03
 -0.11439580D-03  0.14598581D-08  0.11193266D-08  0.55862240D-09  0.88709185D-03
  0.84660120D-06  0.17398729D-03 -0.33853936D-08 -0.72670273D-03 -0.63650737D-03
 -0.56301447D-03 -0.52352734D-06 -0.13469571D-08 -0.79493723D-08  0.26491397D+00
  0.48871454D+00  0.78893680D+00  0.10269613D+01  0.87630794D+00  0.30256807D+00
 -0.98209872D-02 -0.45264840D-02  0.12692734D-01 -0.28010435D-04 -0.21476625D-04
 -0.10718341D-04 -0.19260621D-03 -0.14767823D-03 -0.73701786D-04 -0.25358364D-08
 -0.19443185D-08 -0.97035119D-09 -0.12590779D-02 -0.29418773D-04  0.17057483D-03
  0.40379735D-09 -0.51488271D-02 -0.53657244D-02 -0.53516904D-02 -0.25403197D-04
 -0.42143720D-08  0.31819262D-08  0.26489835D+00  0.48868573D+00  0.78889030D+00
  0.10269008D+01  0.87625629D+00  0.30255024D+00 -0.98203951D-02 -0.45262111D-02
  0.12691968D-01 -0.28010631D-04 -0.21476775D-04 -0.10718416D-04  0.19262469D-03
  0.14769240D-03  0.73708856D-04  0.20471526D-08  0.15696267D-08  0.78335375D-09
 -0.12589216D-02 -0.29426215D-04 -0.17061308D-03 -0.20785820D-09 -0.51485398D-02
 -0.53654369D-02 -0.53513884D-02  0.25398702D-04  0.14299418D-07  0.52897054D-08
  0.76775115D-02  0.14163510D-01  0.22864296D-01  0.29762520D-01  0.25396412D-01
  0.87687708D-02 -0.19529081D-03 -0.90009357D-04  0.25239563D-03 -0.19452429D-03
 -0.14914889D-03 -0.74435747D-04  0.13519722D-03  0.10366066D-03  0.51733932D-04
 -0.78441797D-08 -0.60144195D-08 -0.30016168D-08  0.36133512D-03  0.18177879D-03
 -0.47322774D-04  0.67176632D-08 -0.35517792D-03 -0.29072861D-03 -0.24533592D-03
  0.11530820D-03 -0.71393238D-08  0.31817867D-08 -0.13580358D-04 -0.23034857D-04
 -0.26224371D-04 -0.17267842D-05  0.27205474D-03  0.50188786D-03  0.81020263D-03
  0.10546431D-02  0.89992886D-03  0.31072381D-03  0.18029984D-04  0.83100029D-05
 -0.23302116D-04 -0.21601316D-04 -0.16562519D-04 -0.82658578D-05 -0.29953348D-05
 -0.22966327D-05 -0.11461807D-05  0.16684896D-08  0.12792920D-08  0.63845635D-09
  0.52272572D-04  0.93240306D-05  0.26601879D-04 -0.69825233D-09  0.36316144D-04
  0.10324025D-04 -0.32670076D-04  0.21908011D-04  0.25143457D-08 -0.19780491D-10
  0.27207792D-03  0.50193063D-03  0.81027166D-03  0.10547330D-02  0.90000554D-03
  0.31075028D-03  0.18026782D-04  0.83085275D-05 -0.23297978D-04 -0.21601678D-04
 -0.16562796D-04 -0.82659962D-05  0.29962779D-05  0.22973559D-05  0.11465416D-05
  0.88862385D-09  0.68134040D-09  0.34003661D-09  0.52240483D-04  0.93104914D-05
 -0.26607652D-04  0.62610921D-09  0.36319095D-04  0.10325066D-04 -0.32667854D-04
 -0.21908496D-04  0.23379375D-08 -0.32889460D-08  0.76778985D-02  0.14164223D-01
  0.22865449D-01  0.29764020D-01  0.25397692D-01  0.87692128D-02 -0.19529952D-03
 -0.90013370D-04  0.25240688D-03 -0.19453498D-03 -0.14915708D-03 -0.74439837D-04
 -0.13520434D-03 -0.10366611D-03 -0.51736656D-04 -0.17810479D-08 -0.13655945D-08
 -0.68152738D-09  0.36137826D-03  0.18177935D-03  0.47343383D-04  0.10842253D-08
 -0.35520404D-03 -0.29074701D-03 -0.24535038D-03 -0.11531683D-03 -0.14300744D-08
 -0.16957199D-08 -0.14277475D-04 -0.24217299D-04 -0.27570539D-04  0.32478036D-05
 -0.42070541D-05 -0.71359600D-05 -0.81240382D-05  0.47965471D-05 -0.13607470D-04
 -0.23080845D-04 -0.26276726D-04 -0.17164626D-05 -0.13608069D-04 -0.23081860D-04
 -0.26277882D-04 -0.17214853D-05 -0.42065369D-05 -0.71350827D-05 -0.81230394D-05
  0.48001255D-05 -0.14277260D-04 -0.24216935D-04 -0.27570125D-04  0.32502506D-05
 -0.42074620D-05 -0.71366519D-05 -0.81248260D-05  0.47446822D-05 -0.42079646D-05
 -0.71375044D-05 -0.81257965D-05  0.47411573D-05 -0.13579763D-04 -0.23033849D-04
 -0.26223223D-04 -0.17216245D-05
MO    2     MO 0.0        OCC NO =    2.0000000  ORB. ENERGY =  -10.195196
 -0.27058829D-03 -0.49918256D-03 -0.80583543D-03 -0.10489583D-02 -0.89507801D-03
 -0.30904893D-03 -0.12670412D-04 -0.58397812D-05  0.16375356D-04 -0.35875560D-04
 -0.27507104D-04 -0.13727973D-04  0.24981249D-08  0.19154037D-08  0.95592069D-09
 -0.45362716D-08 -0.34781253D-08 -0.17358283D-08  0.29003609D-04 -0.52653782D-05
 -0.11472100D-05  0.23558763D-08 -0.31074578D-04 -0.94327897D-05  0.28077426D-04
  0.16648759D-04  0.33560252D-09 -0.64912585D-08 -0.76978871D-02 -0.14201099D-01
 -0.22924976D-01 -0.29841508D-01 -0.25463813D-01 -0.87920425D-02  0.21063362D-03
  0.97080844D-04 -0.27222482D-03 -0.17528334D-03 -0.13439614D-03 -0.67073095D-04
 -0.14932641D-03 -0.11449402D-03 -0.57140541D-04  0.48184836D-09  0.36945076D-09
  0.18438182D-09 -0.33430037D-03  0.91105384D-04  0.71130519D-04  0.51525529D-09
  0.37725965D-03  0.28047840D-03  0.23470582D-03  0.12654361D-03  0.13318748D-08
 -0.96942679D-09 -0.26525136D+00 -0.48933697D+00 -0.78994159D+00 -0.10282692D+01
 -0.87742400D+00 -0.30295342D+00  0.98574464D-02  0.45432880D-02 -0.12739854D-01
  0.26051322D-04  0.19974501D-04  0.99686762D-05 -0.15070380D-03 -0.11555012D-03
 -0.57667607D-04  0.42204103D-08  0.32359429D-08  0.16149623D-08  0.11133821D-02
 -0.15234707D-04  0.12524867D-03 -0.82200048D-09  0.52038012D-02  0.53965341D-02
  0.53375320D-02 -0.78909451D-05 -0.31830827D-08 -0.91782782D-09 -0.26524033D+00
 -0.48931662D+00 -0.78990875D+00 -0.10282265D+01 -0.87738752D+00 -0.30294083D+00
  0.98570255D-02  0.45430940D-02 -0.12739310D-01  0.26048671D-04  0.19972469D-04
  0.99676618D-05  0.15071516D-03  0.11555883D-03  0.57671954D-04  0.14278843D-07
  0.10948111D-07  0.54638749D-08  0.11132362D-02 -0.15205288D-04 -0.12527272D-03
 -0.65015130D-08  0.52035999D-02  0.53963341D-02  0.53373215D-02  0.78932435D-05
  0.12549439D-07 -0.17234904D-08 -0.76974217D-02 -0.14200240D-01 -0.22923590D-01
 -0.29839703D-01 -0.25462273D-01 -0.87915110D-02  0.21061974D-03  0.97074444D-04
 -0.27220687D-03 -0.17527232D-03 -0.13438770D-03 -0.67068879D-04  0.14931986D-03
  0.11448900D-03  0.57138033D-04  0.28198898D-08  0.21621126D-08  0.10790457D-08
 -0.33428974D-03  0.91103052D-04 -0.71124760D-04 -0.12107982D-08  0.37723758D-03
  0.28045923D-03  0.23469181D-03 -0.12653645D-03 -0.13516274D-07  0.12033749D-07
 -0.27055724D-03 -0.49912527D-03 -0.80574295D-03 -0.10488379D-02 -0.89497529D-03
 -0.30901346D-03 -0.12672452D-04 -0.58407216D-05  0.16377993D-04 -0.35876869D-04
 -0.27508108D-04 -0.13728474D-04 -0.23624775D-08 -0.18113979D-08 -0.90401451D-09
 -0.15832551D-08 -0.12139396D-08 -0.60584093D-09  0.28992006D-04 -0.52601779D-05
  0.11424512D-05 -0.41964875D-09 -0.31072432D-04 -0.94325068D-05  0.28078139D-04
 -0.16647185D-04  0.41767270D-08  0.10426359D-08  0.58817504D-04  0.10850681D-03
  0.17516364D-03  0.22801101D-03  0.19456221D-03  0.67177654D-04 -0.15192356D-05
 -0.70021430D-06  0.19634740D-05  0.41928208D-03  0.32147891D-03  0.16044051D-03
  0.93300671D-06  0.71537037D-06  0.35701995D-06 -0.93143954D-09 -0.71416876D-09
 -0.35642027D-09  0.27402249D-05 -0.26900114D-03 -0.52585890D-06 -0.12389635D-08
 -0.22642513D-05 -0.19844220D-05 -0.17563018D-05 -0.16837418D-03 -0.26012127D-08
 -0.54017658D-08  0.59871030D-04  0.11045036D-03  0.17830113D-03  0.23209509D-03
  0.19804716D-03  0.68380925D-04 -0.15439962D-05 -0.71162642D-06  0.19954748D-05
  0.41928756D-03  0.32148311D-03  0.16044260D-03 -0.94752951D-06 -0.72650553D-06
 -0.36257718D-06  0.56258653D-08  0.43135567D-08  0.21527671D-08  0.28410144D-05
 -0.26900125D-03  0.56784683D-06 -0.73328800D-09 -0.23133239D-05 -0.20253763D-05
 -0.17909725D-05  0.16837743D-03  0.26859366D-08  0.88912668D-09  0.26692721D+00
  0.49242858D+00  0.79493242D+00  0.10347658D+01  0.88296754D+00  0.30486747D+00
 -0.99195759D-02 -0.45719235D-02  0.12820151D-01  0.25873127D-04  0.19837872D-04
  0.99004887D-05 -0.15191559D-03 -0.11647924D-03 -0.58131302D-04 -0.77907475D-08
 -0.59734510D-08 -0.29811707D-08 -0.11213557D-02 -0.15416857D-04  0.12631783D-03
  0.22787715D-08 -0.52363698D-02 -0.54304734D-02 -0.53713834D-02  0.77302570D-05
 -0.38688772D-08  0.25283280D-08  0.26691024D+00  0.49239727D+00  0.79488186D+00
  0.10347000D+01  0.88291139D+00  0.30484808D+00 -0.99189301D-02 -0.45716258D-02
  0.12819316D-01  0.25869273D-04  0.19834918D-04  0.98990142D-05  0.15193510D-03
  0.11649420D-03  0.58138771D-04 -0.31274392D-08 -0.23979220D-08 -0.11967311D-08
 -0.11211554D-02 -0.15392239D-04 -0.12635624D-03  0.46847742D-09 -0.52360597D-02
 -0.54301633D-02 -0.53710577D-02 -0.77355444D-05  0.13349498D-07  0.69759089D-09
  0.77460356D-02  0.14289923D-01  0.23068367D-01  0.30028159D-01  0.25623083D-01
  0.88470347D-02 -0.21185912D-03 -0.97645676D-04  0.27380867D-03 -0.17649880D-03
 -0.13532809D-03 -0.67538201D-04  0.15017328D-03  0.11514334D-03  0.57464599D-04
 -0.30558667D-08 -0.23430447D-08 -0.11693435D-08  0.33656289D-03  0.92249082D-04
 -0.71420880D-04  0.25039276D-08 -0.37948044D-03 -0.28229588D-03 -0.23624256D-03
  0.12726415D-03 -0.10284237D-07  0.57820366D-08 -0.44431560D-05 -0.75364335D-05
 -0.85799632D-05  0.83190708D-06  0.27228688D-03  0.50231612D-03  0.81089397D-03
  0.10555430D-02  0.90069677D-03  0.31098895D-03  0.12786212D-04  0.58931533D-05
 -0.16525017D-04 -0.36013562D-04 -0.27612915D-04 -0.13780780D-04 -0.21041489D-07
 -0.16133279D-07 -0.80516369D-08  0.32586394D-09  0.24985180D-09  0.12469356D-09
 -0.28658346D-04 -0.51995391D-05  0.13094061D-05  0.47690796D-10  0.31300699D-04
  0.94969396D-05 -0.28285196D-04  0.16785316D-04  0.35532725D-08  0.37148103D-09
  0.27231117D-03  0.50236093D-03  0.81096631D-03  0.10556372D-02  0.90077711D-03
  0.31101669D-03  0.12783778D-04  0.58920314D-05 -0.16521871D-04 -0.36012937D-04
 -0.27612436D-04 -0.13780541D-04  0.21481532D-07  0.16470676D-07  0.82200218D-08
  0.10523339D-08  0.80686286D-09  0.40268112D-09 -0.28680637D-04 -0.52087228D-05
 -0.13151054D-05 -0.66882345D-09  0.31304217D-04  0.94982966D-05 -0.28283449D-04
 -0.16786966D-04  0.12714270D-08 -0.33991307D-08  0.77464620D-02  0.14290710D-01
  0.23069637D-01  0.30029812D-01  0.25624493D-01  0.88475217D-02 -0.21186952D-03
 -0.97650470D-04  0.27382211D-03 -0.17651347D-03 -0.13533933D-03 -0.67543811D-04
 -0.15018207D-03 -0.11515009D-03 -0.57467964D-04 -0.11545792D-09 -0.88525811D-10
 -0.44180584D-10  0.33659000D-03  0.92251639D-04  0.71433760D-04 -0.11035022D-08
 -0.37950862D-03 -0.28231797D-03 -0.23625809D-03 -0.12727403D-03 -0.59613718D-09
 -0.15833446D-08 -0.45399604D-07 -0.77006322D-07 -0.87668976D-07  0.51668856D-08
 -0.16122835D-06 -0.27347380D-06 -0.31134025D-06 -0.87989710D-05  0.43575477D-05
  0.73912257D-05  0.84146492D-05 -0.84442393D-06  0.43574425D-05  0.73910473D-05
  0.84144461D-05 -0.84327492D-06 -0.16166584D-06 -0.27421586D-06 -0.31218506D-06
 -0.88012116D-05 -0.44598163D-07 -0.75646925D-07 -0.86121351D-07  0.14704531D-07
  0.13520443D-06  0.22933230D-06  0.26108672D-06  0.88315993D-05  0.13476103D-06
  0.22858021D-06  0.26023050D-06  0.88288693D-05 -0.44430437D-05 -0.75362431D-05
 -0.85797464D-05  0.83471918D-06
MO    3     MO 0.0        OCC NO =    2.0000000  ORB. ENERGY =  -10.194817
 -0.49234740D-03 -0.90828481D-03 -0.14662533D-02 -0.19086261D-02 -0.16286341D-02
 -0.56232823D-03  0.40817487D-04  0.18812742D-04 -0.52752894D-04  0.13518944D-04
  0.10365469D-04  0.51730954D-05  0.41338884D-05  0.31696034D-05  0.15818542D-05
 -0.58731457D-08 -0.45031556D-08 -0.22473903D-08  0.31279176D-03 -0.12783585D-03
 -0.88966209D-04  0.29895944D-08 -0.52543249D-04 -0.17050019D-04 -0.24466686D-04
  0.33070564D-04  0.26980361D-08 -0.61945118D-08 -0.81437207D-02 -0.15023574D-01
 -0.24252707D-01 -0.31569819D-01 -0.26938584D-01 -0.93012456D-02  0.21963338D-03
  0.10122882D-03 -0.28385619D-03 -0.24206589D-03 -0.18560077D-03 -0.92627794D-04
 -0.15107676D-03 -0.11583608D-03 -0.57810321D-04 -0.33053672D-08 -0.25343459D-08
 -0.12648162D-08 -0.35230314D-03  0.40572052D-04  0.17251500D-03  0.90546929D-08
  0.47317714D-03  0.38633315D-03  0.27269896D-03  0.15839010D-03  0.15416057D-08
 -0.70137924D-08 -0.26627744D+00 -0.49122989D+00 -0.79299735D+00 -0.10322469D+01
 -0.88081817D+00 -0.30412535D+00  0.10138362D-01  0.46727620D-02 -0.13102912D-01
  0.55232163D-04  0.42348520D-04  0.21134879D-04  0.29641014D-03  0.22726850D-03
  0.11342291D-03  0.28571248D-08  0.21906621D-08  0.10932939D-08  0.32783639D-02
 -0.51143549D-03 -0.59511094D-03 -0.16800976D-07  0.48673439D-02  0.48368749D-02
  0.50972180D-02  0.36863705D-04  0.58811246D-08 -0.47715892D-08  0.26628853D+00
  0.49125035D+00  0.79303038D+00  0.10322899D+01  0.88085487D+00  0.30413802D+00
 -0.10138775D-01 -0.46729520D-02  0.13103445D-01 -0.55235387D-04 -0.42350992D-04
 -0.21136113D-04  0.29640512D-03  0.22726464D-03  0.11342099D-03 -0.12247510D-07
 -0.93906140D-08 -0.46865745D-08 -0.32784079D-02  0.51143823D-03 -0.59510608D-03
  0.47481386D-09 -0.48675615D-02 -0.48371008D-02 -0.50974407D-02  0.36861836D-04
 -0.85181593D-08  0.10425699D-07  0.81438969D-02  0.15023900D-01  0.24253232D-01
  0.31570502D-01  0.26939167D-01  0.93014469D-02 -0.21963714D-03 -0.10123056D-03
  0.28386105D-03  0.24207308D-03  0.18560629D-03  0.92630545D-04 -0.15108307D-03
 -0.11584092D-03 -0.57812736D-04 -0.15605944D-07 -0.11965648D-07 -0.59716968D-08
  0.35231428D-03 -0.40574985D-04  0.17251739D-03 -0.18552845D-08 -0.47319051D-03
 -0.38634157D-03 -0.27270539D-03  0.15839521D-03  0.30069767D-07 -0.19587877D-07
  0.49234232D-03  0.90827545D-03  0.14662382D-02  0.19086065D-02  0.16286174D-02
  0.56232244D-03 -0.40816272D-04 -0.18812183D-04  0.52751324D-04 -0.13517018D-04
 -0.10363992D-04 -0.51723586D-05  0.41342036D-05  0.31698451D-05  0.15819748D-05
 -0.13042700D-08 -0.10000315D-08 -0.49908581D-09 -0.31279259D-03  0.12783552D-03
 -0.88966164D-04 -0.74611056D-08  0.52544862D-04  0.17050811D-04  0.24465838D-04
  0.33071600D-04 -0.35837501D-08 -0.79705980D-08 -0.19847923D-01 -0.36615542D-01
 -0.59108838D-01 -0.76942145D-01 -0.65654872D-01 -0.22669049D-01  0.47388778D-03
  0.21841445D-03 -0.61245691D-03  0.79301044D-06  0.60803011D-06  0.30344964D-06
 -0.27404030D-03 -0.21011672D-03 -0.10486297D-03 -0.30100188D-08 -0.23078915D-08
 -0.11517996D-08 -0.18972998D-02  0.73683677D-07  0.80187063D-03  0.86107424D-08
  0.93168040D-03  0.77484861D-03  0.65166661D-03 -0.47436719D-06  0.18183416D-07
 -0.72106026D-08  0.19847591D-01  0.36614929D-01  0.59107849D-01  0.76940857D-01
  0.65653773D-01  0.22668670D-01 -0.47387762D-03 -0.21840976D-03  0.61244377D-03