 Generated by Multiwfn
GAUSSIAN             69 MOL ORBITALS    312 PRIMITIVES       18 NUCLEI
  B    1    (CENTRE  1)  -2.37326553  2.76369926 -0.00019234  CHARGE =  5.0
  H    2    (CENTRE  2)  -2.41244827  5.01305645 -0.00126472  CHARGE =  1.0
  B    3    (CENTRE  3)   2.37326359  2.76369903 -0.00018718  CHARGE =  5.0
  H    4    (CENTRE  4)   2.41244672  5.01305626 -0.00125113  CHARGE =  1.0
  B    5    (CENTRE  5)   4.74691640 -1.34804574 -0.00011660  CHARGE =  5.0
  H    6    (CENTRE  6)   6.69889495 -2.47106098 -0.00102217  CHARGE =  1.0
  B    7    (CENTRE  7)   0.00000255 -1.34117055  0.00035247  CHARGE =  5.0
  B    8    (CENTRE  8)  -4.74691345 -1.34804611 -0.00011331  CHARGE =  5.0
  H    9    (CENTRE  9)  -6.69889151 -2.47106296 -0.00101749  CHARGE =  1.0
  N   10    (CENTRE 10)  -4.66889163  1.35458249  0.00044240  CHARGE =  7.0
  H   11    (CENTRE 11)  -6.31182452  2.31239821 -0.00017981  CHARGE =  1.0
  N   12    (CENTRE 12)  -0.00000178  1.41486951  0.00009526  CHARGE =  7.0
  N   13    (CENTRE 13)   4.66889027  1.35458319  0.00044433  CHARGE =  7.0
  H   14    (CENTRE 14)   6.31182199  2.31240106 -0.00016832  CHARGE =  1.0
  N   15    (CENTRE 15)   2.38700305 -2.63887788  0.00007120  CHARGE =  7.0
  H   16    (CENTRE 16)   2.40702509 -4.54170195 -0.00086631  CHARGE =  1.0
  N   17    (CENTRE 17)  -2.38700071 -2.63888018  0.00007672  CHARGE =  7.0
  H   18    (CENTRE 18)  -2.40703668 -4.54170535 -0.00085470  CHARGE =  1.0
CENTRE ASSIGNMENTS    1  1  1  1  1  1  1  1  1  1  1  1  1  1  1  1  1  1  1  1
CENTRE ASSIGNMENTS    1  1  1  1  1  1  1  1  2  2  2  2  3  3  3  3  3  3  3  3
CENTRE ASSIGNMENTS    3  3  3  3  3  3  3  3  3  3  3  3  3  3  3  3  3  3  3  3
CENTRE ASSIGNMENTS    4  4  4  4  5  5  5  5  5  5  5  5  5  5  5  5  5  5  5  5
CENTRE ASSIGNMENTS    5  5  5  5  5  5  5  5  5  5  5  5  6  6  6  6  7  7  7  7
CENTRE ASSIGNMENTS    7  7  7  7  7  7  7  7  7  7  7  7  7  7  7  7  7  7  7  7
CENTRE ASSIGNMENTS    7  7  7  7  8  8  8  8  8  8  8  8  8  8  8  8  8  8  8  8
CENTRE ASSIGNMENTS    8  8  8  8  8  8  8  8  8  8  8  8  9  9  9  9 10 10 10 10
CENTRE ASSIGNMENTS   10 10 10 10 10 10 10 10 10 10 10 10 10 10 10 10 10 10 10 10
CENTRE ASSIGNMENTS   10 10 10 10 11 11 11 11 12 12 12 12 12 12 12 12 12 12 12 12
CENTRE ASSIGNMENTS   12 12 12 12 12 12 12 12 12 12 12 12 12 12 12 12 13 13 13 13
CENTRE ASSIGNMENTS   13 13 13 13 13 13 13 13 13 13 13 13 13 13 13 13 13 13 13 13
CENTRE ASSIGNMENTS   13 13 13 13 14 14 14 14 15 15 15 15 15 15 15 15 15 15 15 15
CENTRE ASSIGNMENTS   15 15 15 15 15 15 15 15 15 15 15 15 15 15 15 15 16 16 16 16
CENTRE ASSIGNMENTS   17 17 17 17 17 17 17 17 17 17 17 17 17 17 17 17 17 17 17 17
CENTRE ASSIGNMENTS   17 17 17 17 17 17 17 17 18 18 18 18
TYPE ASSIGNMENTS      1  1  1  1  1  1  1  1  1  2  2  2  3  3  3  4  4  4  1  2
TYPE ASSIGNMENTS      3  4  5  6  7  8  9 10  1  1  1  1  1  1  1  1  1  1  1  1
TYPE ASSIGNMENTS      1  2  2  2  3  3  3  4  4  4  1  2  3  4  5  6  7  8  9 10
TYPE ASSIGNMENTS      1  1  1  1  1  1  1  1  1  1  1  1  1  2  2  2  3  3  3  4
TYPE ASSIGNMENTS      4  4  1  2  3  4  5  6  7  8  9 10  1  1  1  1  1  1  1  1
TYPE ASSIGNMENTS      1  1  1  1  1  2  2  2  3  3  3  4  4  4  1  2  3  4  5  6
TYPE ASSIGNMENTS      7  8  9 10  1  1  1  1  1  1  1  1  1  2  2  2  3  3  3  4
TYPE ASSIGNMENTS      4  4  1  2  3  4  5  6  7  8  9 10  1  1  1  1  1  1  1  1
TYPE ASSIGNMENTS      1  1  1  1  1  2  2  2  3  3  3  4  4  4  1  2  3  4  5  6
TYPE ASSIGNMENTS      7  8  9 10  1  1  1  1  1  1  1  1  1  1  1  1  1  2  2  2
TYPE ASSIGNMENTS      3  3  3  4  4  4  1  2  3  4  5  6  7  8  9 10  1  1  1  1
TYPE ASSIGNMENTS      1  1  1  1  1  2  2  2  3  3  3  4  4  4  1  2  3  4  5  6
TYPE ASSIGNMENTS      7  8  9 10  1  1  1  1  1  1  1  1  1  1  1  1  1  2  2  2
TYPE ASSIGNMENTS      3  3  3  4  4  4  1  2  3  4  5  6  7  8  9 10  1  1  1  1
TYPE ASSIGNMENTS      1  1  1  1  1  1  1  1  1  2  2  2  3  3  3  4  4  4  1  2
TYPE ASSIGNMENTS      3  4  5  6  7  8  9 10  1  1  1  1
EXPONENTS  0.2068882D+04 0.3106496D+03 0.7068303D+02 0.1986108D+02 0.6299305D+01
EXPONENTS  0.2127027D+01 0.4727971D+01 0.1190338D+01 0.3594117D+00 0.4727971D+01
EXPONENTS  0.1190338D+01 0.3594117D+00 0.4727971D+01 0.1190338D+01 0.3594117D+00
EXPONENTS  0.4727971D+01 0.1190338D+01 0.3594117D+00 0.1267512D+00 0.1267512D+00
EXPONENTS  0.1267512D+00 0.1267512D+00 0.6000000D+00 0.6000000D+00 0.6000000D+00
EXPONENTS  0.6000000D+00 0.6000000D+00 0.6000000D+00 0.1873114D+02 0.2825394D+01
EXPONENTS  0.6401217D+00 0.1612778D+00 0.2068882D+04 0.3106496D+03 0.7068303D+02
EXPONENTS  0.1986108D+02 0.6299305D+01 0.2127027D+01 0.4727971D+01 0.1190338D+01
EXPONENTS  0.3594117D+00 0.4727971D+01 0.1190338D+01 0.3594117D+00 0.4727971D+01
EXPONENTS  0.1190338D+01 0.3594117D+00 0.4727971D+01 0.1190338D+01 0.3594117D+00
EXPONENTS  0.1267512D+00 0.1267512D+00 0.1267512D+00 0.1267512D+00 0.6000000D+00
EXPONENTS  0.6000000D+00 0.6000000D+00 0.6000000D+00 0.6000000D+00 0.6000000D+00
EXPONENTS  0.1873114D+02 0.2825394D+01 0.6401217D+00 0.1612778D+00 0.2068882D+04
EXPONENTS  0.3106496D+03 0.7068303D+02 0.1986108D+02 0.6299305D+01 0.2127027D+01
EXPONENTS  0.4727971D+01 0.1190338D+01 0.3594117D+00 0.4727971D+01 0.1190338D+01
EXPONENTS  0.3594117D+00 0.4727971D+01 0.1190338D+01 0.3594117D+00 0.4727971D+01
EXPONENTS  0.1190338D+01 0.3594117D+00 0.1267512D+00 0.1267512D+00 0.1267512D+00
EXPONENTS  0.1267512D+00 0.6000000D+00 0.6000000D+00 0.6000000D+00 0.6000000D+00
EXPONENTS  0.6000000D+00 0.6000000D+00 0.1873114D+02 0.2825394D+01 0.6401217D+00
EXPONENTS  0.1612778D+00 0.2068882D+04 0.3106496D+03 0.7068303D+02 0.1986108D+02
EXPONENTS  0.6299305D+01 0.2127027D+01 0.4727971D+01 0.1190338D+01 0.3594117D+00
EXPONENTS  0.4727971D+01 0.1190338D+01 0.3594117D+00 0.4727971D+01 0.1190338D+01
EXPONENTS  0.3594117D+00 0.4727971D+01 0.1190338D+01 0.3594117D+00 0.1267512D+00
EXPONENTS  0.1267512D+00 0.1267512D+00 0.1267512D+00 0.6000000D+00 0.6000000D+00
EXPONENTS  0.6000000D+00 0.6000000D+00 0.6000000D+00 0.6000000D+00 0.2068882D+04
EXPONENTS  0.3106496D+03 0.7068303D+02 0.1986108D+02 0.6299305D+01 0.2127027D+01
EXPONENTS  0.4727971D+01 0.1190338D+01 0.3594117D+00 0.4727971D+01 0.1190338D+01
EXPONENTS  0.3594117D+00 0.4727971D+01 0.1190338D+01 0.3594117D+00 0.4727971D+01
EXPONENTS  0.1190338D+01 0.3594117D+00 0.1267512D+00 0.1267512D+00 0.1267512D+00
EXPONENTS  0.1267512D+00 0.6000000D+00 0.6000000D+00 0.6000000D+00 0.6000000D+00
EXPONENTS  0.6000000D+00 0.6000000D+00 0.1873114D+02 0.2825394D+01 0.6401217D+00
EXPONENTS  0.1612778D+00 0.4173511D+04 0.6274579D+03 0.1429021D+03 0.4023433D+02
EXPONENTS  0.1282021D+02 0.4390437D+01 0.1162636D+02 0.2716280D+01 0.7722184D+00
EXPONENTS  0.1162636D+02 0.2716280D+01 0.7722184D+00 0.1162636D+02 0.2716280D+01
EXPONENTS  0.7722184D+00 0.1162636D+02 0.2716280D+01 0.7722184D+00 0.2120315D+00
EXPONENTS  0.2120315D+00 0.2120315D+00 0.2120315D+00 0.8000000D+00 0.8000000D+00
EXPONENTS  0.8000000D+00 0.8000000D+00 0.8000000D+00 0.8000000D+00 0.1873114D+02
EXPONENTS  0.2825394D+01 0.6401217D+00 0.1612778D+00 0.4173511D+04 0.6274579D+03
EXPONENTS  0.1429021D+03 0.4023433D+02 0.1282021D+02 0.4390437D+01 0.1162636D+02
EXPONENTS  0.2716280D+01 0.7722184D+00 0.1162636D+02 0.2716280D+01 0.7722184D+00
EXPONENTS  0.1162636D+02 0.2716280D+01 0.7722184D+00 0.1162636D+02 0.2716280D+01
EXPONENTS  0.7722184D+00 0.2120315D+00 0.2120315D+00 0.2120315D+00 0.2120315D+00
EXPONENTS  0.8000000D+00 0.8000000D+00 0.8000000D+00 0.8000000D+00 0.8000000D+00
EXPONENTS  0.8000000D+00 0.4173511D+04 0.6274579D+03 0.1429021D+03 0.4023433D+02
EXPONENTS  0.1282021D+02 0.4390437D+01 0.1162636D+02 0.2716280D+01 0.7722184D+00
EXPONENTS  0.1162636D+02 0.2716280D+01 0.7722184D+00 0.1162636D+02 0.2716280D+01
EXPONENTS  0.7722184D+00 0.1162636D+02 0.2716280D+01 0.7722184D+00 0.2120315D+00
EXPONENTS  0.2120315D+00 0.2120315D+00 0.2120315D+00 0.8000000D+00 0.8000000D+00
EXPONENTS  0.8000000D+00 0.8000000D+00 0.8000000D+00 0.8000000D+00 0.1873114D+02
EXPONENTS  0.2825394D+01 0.6401217D+00 0.1612778D+00 0.4173511D+04 0.6274579D+03
EXPONENTS  0.1429021D+03 0.4023433D+02 0.1282021D+02 0.4390437D+01 0.1162636D+02
EXPONENTS  0.2716280D+01 0.7722184D+00 0.1162636D+02 0.2716280D+01 0.7722184D+00
EXPONENTS  0.1162636D+02 0.2716280D+01 0.7722184D+00 0.1162636D+02 0.2716280D+01
EXPONENTS  0.7722184D+00 0.2120315D+00 0.2120315D+00 0.2120315D+00 0.2120315D+00
EXPONENTS  0.8000000D+00 0.8000000D+00 0.8000000D+00 0.8000000D+00 0.8000000D+00
EXPONENTS  0.8000000D+00 0.1873114D+02 0.2825394D+01 0.6401217D+00 0.1612778D+00
EXPONENTS  0.4173511D+04 0.6274579D+03 0.1429021D+03 0.4023433D+02 0.1282021D+02
EXPONENTS  0.4390437D+01 0.1162636D+02 0.2716280D+01 0.7722184D+00 0.1162636D+02
EXPONENTS  0.2716280D+01 0.7722184D+00 0.1162636D+02 0.2716280D+01 0.7722184D+00
EXPONENTS  0.1162636D+02 0.2716280D+01 0.7722184D+00 0.2120315D+00 0.2120315D+00
EXPONENTS  0.2120315D+00 0.2120315D+00 0.8000000D+00 0.8000000D+00 0.8000000D+00
EXPONENTS  0.8000000D+00 0.8000000D+00 0.8000000D+00 0.1873114D+02 0.2825394D+01
EXPONENTS  0.6401217D+00 0.1612778D+00
MO    1     MO 0.0        OCC NO =    1.0000000  ORB. ENERGY =  -14.140447
  0.10017975D-05  0.18452944D-05  0.29668541D-05  0.38288106D-05  0.32498410D-05
  0.11200949D-05 -0.52882052D-05 -0.18852501D-05  0.66401928D-05  0.18824150D-05
  0.13853814D-05  0.74884704D-06 -0.15648858D-04 -0.11516927D-04 -0.62253014D-05
  0.26320678D-09  0.19370956D-09  0.10470678D-09  0.23243007D-04 -0.19604484D-05
 -0.17673523D-04  0.57593290D-08 -0.22910570D-05  0.21089742D-05  0.22966258D-05
  0.41246574D-05 -0.44273481D-08 -0.49007831D-08  0.16541398D-06  0.28057342D-06
  0.31942292D-06  0.11020641D-04 -0.95639052D-06 -0.17616555D-05 -0.28323800D-05
 -0.36552679D-05 -0.31025403D-05 -0.10693260D-05  0.50805919D-05  0.18112357D-05
 -0.63795009D-05  0.20870098D-05  0.15359549D-05  0.83023730D-06  0.14621204D-04
  0.10760615D-04  0.58164886D-05 -0.22733807D-09 -0.16731163D-09 -0.90437782D-10
 -0.22775626D-04 -0.18932706D-05  0.17005086D-04 -0.55518943D-08  0.26064405D-05
 -0.19267195D-05 -0.22853782D-05  0.43201228D-05 -0.39134884D-08  0.46382728D-08
 -0.15061461D-06 -0.25547089D-06 -0.29084458D-06 -0.10448549D-04 -0.89108668D-06
 -0.16413669D-05 -0.26389806D-05 -0.34056805D-05 -0.28906940D-05 -0.99631076D-06
  0.30702710D-04  0.10945545D-04 -0.38552194D-04  0.19613371D-03  0.14434649D-03
  0.78024319D-04  0.94563480D-04  0.69594900D-04  0.37618475D-04 -0.21224130D-07
 -0.15620102D-07 -0.84432108D-08  0.47967246D-04 -0.16163264D-04 -0.90646869D-05
  0.56126758D-08 -0.10160484D-03 -0.25494053D-04  0.28149650D-04 -0.14293541D-03
  0.18223002D-07  0.97880385D-08 -0.19226773D-05 -0.32612247D-05 -0.37127890D-05
 -0.26466214D-05  0.11262470D-06  0.20745284D-06  0.33354153D-06  0.43044494D-06
  0.36535565D-06  0.12592401D-06 -0.18491773D-05 -0.65923342D-06  0.23219397D-05
 -0.36615395D-03 -0.26947451D-03 -0.14566039D-03 -0.56472258D-05 -0.41561300D-05
 -0.22465335D-05 -0.94887603D-09 -0.69833442D-09 -0.37747415D-09 -0.28209592D-05
  0.83499127D-04  0.66870339D-06 -0.38337883D-09  0.66800636D-05  0.22444754D-05
 -0.13788019D-05  0.26542443D-03  0.58476651D-07  0.64320052D-09  0.10259885D-05
  0.18898538D-05  0.30384966D-05  0.39212673D-05  0.33283169D-05  0.11471425D-05
 -0.32686348D-04 -0.11652713D-04  0.41042971D-04  0.20773199D-03  0.15288235D-03
  0.82638252D-04 -0.99724717D-04 -0.73393362D-04 -0.39671677D-04  0.22619039D-07
  0.16646699D-07  0.89981225D-08 -0.51299007D-04 -0.17112379D-04  0.99750305D-05
 -0.58824794D-08  0.10801062D-03  0.27447727D-04 -0.29705914D-04 -0.15151220D-03
  0.19464014D-07 -0.10305714D-07  0.20423868D-05  0.34642746D-05  0.39439541D-05
  0.31178601D-05 -0.11244987D-03 -0.20708583D-03 -0.33459428D-03 -0.43791198D-03
 -0.37511086D-03 -0.12904248D-03 -0.18725637D-04 -0.92570343D-05  0.24419463D-04
  0.67103251D-05  0.52240952D-05  0.24805852D-05 -0.18905856D-05 -0.14718511D-05
 -0.69888694D-06 -0.34250967D-08 -0.26664925D-08 -0.12661449D-08 -0.22171799D-04
 -0.15156052D-04  0.72870061D-05  0.48044120D-08 -0.13282384D-04 -0.25555848D-04
  0.22388999D-04  0.29628065D-04  0.99194501D-09 -0.22739287D-07  0.96637142D-06
  0.16391488D-05  0.18661130D-05 -0.86997795D-05 -0.51327183D-06 -0.94523296D-06
 -0.15272389D-05 -0.19988275D-05 -0.17121749D-05 -0.58900799D-06 -0.12669230D-05
 -0.62630446D-06  0.16521510D-05 -0.30279744D-04 -0.23573264D-04 -0.11193420D-04
 -0.76860171D-06 -0.59836870D-06 -0.28412663D-06 -0.66713160D-09 -0.51937260D-09
 -0.24661648D-09 -0.14545735D-05  0.19612266D-04  0.79445330D-06  0.31794745D-09
 -0.51013991D-06 -0.14336811D-05  0.15730348D-05 -0.42903745D-04 -0.17644300D-07
  0.68283736D-10  0.10713213D-03  0.19729278D-03  0.31877138D-03  0.41720321D-03
  0.35737194D-03  0.12294009D-03  0.17357348D-04  0.85806198D-05 -0.22635125D-04
  0.57907911D-05  0.45082233D-05  0.21406639D-05  0.13432779D-05  0.10457633D-05
  0.49656539D-06  0.34352484D-08  0.26743957D-08  0.12698977D-08  0.20399920D-04
 -0.13881671D-04 -0.62697628D-05 -0.46162266D-08  0.12869237D-04  0.24060994D-04
 -0.20525162D-04  0.28130194D-04  0.79371256D-09  0.21554221D-07 -0.10087251D-05
 -0.17109887D-05 -0.19479002D-05  0.80026134D-05 -0.46318929D+00 -0.85300178D+00
 -0.13782185D+01 -0.18037917D+01 -0.15451093D+01 -0.53153549D+00  0.12343999D-01
  0.61022663D-02 -0.16097387D-01  0.21309774D-05  0.16589999D-05  0.78775186D-06
  0.73391934D-03  0.57136793D-03  0.27130570D-03  0.54105867D-06  0.42122281D-06
  0.20001149D-06 -0.75243768D-03  0.24438424D-04 -0.38838549D-04 -0.25816267D-07
  0.66558058D-02  0.65239942D-02  0.65393376D-02  0.16255687D-04 -0.34770105D-07
 -0.45729905D-07 -0.38322877D-04 -0.65002853D-04 -0.74003450D-04  0.45752320D-04
  0.48953860D+00  0.90152624D+00  0.14566208D+01  0.19064035D+01  0.16330054D+01
  0.56177279D+00 -0.13048988D-01 -0.64507784D-02  0.17016740D-01  0.40550252D-05
  0.31569019D-05  0.14990087D-05 -0.77606860D-03 -0.60418180D-03 -0.28688689D-03
 -0.57021803D-06 -0.44392385D-06 -0.21079074D-06  0.79080846D-03  0.23901487D-04
  0.40143816D-04  0.27467354D-07 -0.70372938D-02 -0.68950863D-02 -0.69077211D-02
  0.16198405D-04 -0.36855698D-07  0.46863485D-07  0.40752497D-04  0.69123949D-04
  0.78695173D-04 -0.47978232D-04
MO    2     MO 0.0        OCC NO =    1.0000000  ORB. ENERGY =  -14.140444
  0.79334325D-06  0.14613251D-05  0.23495104D-05  0.30321109D-05  0.25736133D-05
  0.88702528D-06 -0.36093519D-05 -0.12867373D-05  0.45321222D-05 -0.37532836D-05
 -0.27622650D-05 -0.14931008D-05 -0.18157014D-04 -0.13362828D-04 -0.72230756D-05
  0.34790541D-09  0.25604432D-09  0.13840090D-09  0.78158586D-05 -0.11604144D-05
 -0.11606606D-04  0.27334546D-08  0.57688817D-05  0.32352144D-05  0.13826505D-06
 -0.36494799D-05 -0.78056299D-08 -0.43285762D-08  0.26338527D-06  0.44675127D-06
  0.50861053D-06  0.10046861D-04  0.84753368D-06  0.15611430D-05  0.25099971D-05
  0.32392235D-05  0.27494076D-05  0.94761480D-06 -0.38962794D-05 -0.13890272D-05
  0.48924059D-05  0.36431879D-05  0.26812391D-05  0.14493034D-05 -0.18994372D-04
 -0.13979090D-04 -0.75561867D-05  0.26779034D-09  0.19708287D-09  0.10653018D-09
  0.90885354D-05  0.12668960D-05 -0.12565510D-04  0.30280548D-08  0.56334118D-05
  0.33468005D-05  0.26506308D-06  0.34161197D-05  0.80703399D-08 -0.45866211D-08
  0.27212387D-06  0.46157358D-06  0.52548521D-06  0.10640457D-04  0.24650821D-05
  0.45406404D-05  0.73004166D-05  0.94213977D-05  0.79967508D-05  0.27561716D-05
 -0.36734631D-04 -0.13095930D-04  0.46126241D-04 -0.21527319D-03 -0.15843237D-03
 -0.85638233D-04 -0.95994636D-04 -0.70648173D-04 -0.38187806D-04  0.22768862D-07
  0.16756962D-07  0.90577237D-08 -0.61615519D-04  0.17619421D-04  0.16728229D-04
 -0.48935228D-08  0.11871757D-03  0.36054106D-04 -0.28935940D-04  0.15913845D-03
 -0.18104684D-07 -0.62904765D-08  0.22200308D-05  0.37655924D-05  0.42869938D-05
  0.86041291D-05  0.40778216D-05  0.75112798D-05  0.12076594D-04  0.15585193D-04
  0.13228494D-04  0.45593517D-05 -0.66893775D-04 -0.23847693D-04  0.83995901D-04
  0.10127483D-04  0.74534180D-05  0.40288328D-05 -0.20421166D-03 -0.15029153D-03
 -0.81237822D-04 -0.49011134D-07 -0.36070214D-07 -0.19497211D-07 -0.10200362D-03
 -0.23089369D-05  0.24161896D-04 -0.10859498D-07  0.24150903D-03  0.81143427D-04
 -0.49861805D-04 -0.73399141D-05 -0.23371418D-08  0.35409364D-07  0.24120629D-05
  0.44429799D-05  0.71433985D-05  0.92187615D-05  0.78247559D-05  0.26968917D-05
 -0.34981700D-04 -0.12471008D-04  0.43925154D-04  0.20410362D-03  0.15021202D-03
  0.81194844D-04 -0.90621611D-04 -0.66693844D-04 -0.36050353D-04  0.21769390D-07
  0.16021391D-07  0.86601218D-08 -0.58869631D-04 -0.16699027D-04  0.16201416D-04
 -0.46076689D-08  0.11291988D-03  0.34590071D-04 -0.27335939D-04 -0.15099513D-03
  0.17361131D-07 -0.59885090D-08  0.21103312D-05  0.35795211D-05  0.40751583D-05
  0.84445670D-05 -0.93115594D-04 -0.17148015D-03 -0.27706520D-03 -0.36261879D-03
 -0.31061549D-03 -0.10685533D-03 -0.24240508D-04 -0.11983316D-04  0.31611219D-04
  0.16446389D-04  0.12803777D-04  0.60796861D-05 -0.98500724D-05 -0.76684387D-05
 -0.36412459D-05 -0.90593947D-09 -0.70528834D-09 -0.33489585D-09 -0.31451565D-04
 -0.22636908D-04  0.18206431D-04  0.41766689D-08 -0.71074132D-05 -0.26341616D-04
  0.33103916D-04  0.26287612D-04  0.46295063D-08 -0.23739328D-07 -0.79231835D-06
 -0.13439219D-05 -0.15300076D-05 -0.12373863D-04 -0.18569826D-04 -0.34197885D-04
 -0.55254466D-04 -0.72316218D-04 -0.61945322D-04 -0.21309908D-04 -0.45802084D-04
 -0.22642299D-04  0.59728934D-04  0.83776281D-06  0.65221173D-06  0.30969320D-06
 -0.27779915D-04 -0.21627107D-04 -0.10269316D-04 -0.23743193D-07 -0.18484455D-07
 -0.87770732D-08 -0.52574343D-04 -0.54268442D-06  0.28717231D-04  0.10814675D-07
 -0.18448154D-04 -0.51846277D-04  0.56868561D-04  0.11866748D-05  0.60898481D-09
  0.28535976D-09 -0.99190023D-04 -0.18266671D-03 -0.29513965D-03 -0.38627435D-03
 -0.33087860D-03 -0.11382607D-03 -0.25238398D-04 -0.12476623D-04  0.32912533D-04
 -0.16791873D-04 -0.13072741D-04 -0.62073998D-05 -0.99395693D-05 -0.77381134D-05
 -0.36743300D-05 -0.11882205D-08 -0.92504864D-09 -0.43924582D-09 -0.32628818D-04
  0.23439873D-04  0.18581496D-04  0.45083794D-08 -0.78307129D-05 -0.27713903D-04
  0.34290719D-04 -0.27885403D-04 -0.46570890D-08 -0.25171575D-07 -0.73767185D-06
 -0.12512311D-05 -0.14244824D-05 -0.12835831D-04  0.48954790D+00  0.90154336D+00
  0.14566485D+01  0.19064397D+01  0.16330364D+01  0.56178346D+00 -0.13096776D-01
 -0.64744023D-02  0.17079058D-01 -0.35034634D-04 -0.27275022D-04 -0.12951145D-04
 -0.78291107D-03 -0.60950877D-03 -0.28941632D-03 -0.57986858D-06 -0.45143695D-06
 -0.21435823D-06  0.71505663D-03  0.90610720D-05  0.24692635D-04  0.32402479D-07
 -0.70863676D-02 -0.68946043D-02 -0.68460490D-02  0.59006636D-06  0.39473495D-07
  0.21077477D-07  0.45017624D-04  0.76358410D-04  0.86931351D-04 -0.41538092D-04
  0.46319911D+00  0.85301987D+00  0.13782477D+01  0.18038300D+01  0.15451420D+01
  0.53154676D+00 -0.12394502D-01 -0.61272327D-02  0.16163247D-01  0.34854416D-04
  0.27134720D-04  0.12884525D-04 -0.74115017D-03 -0.57699725D-03 -0.27397870D-03
 -0.54706763D-06 -0.42590088D-06 -0.20223280D-06  0.67237651D-03 -0.10396633D-04
  0.22508560D-04  0.30861851D-07 -0.67076680D-02 -0.65234829D-02 -0.64741538D-02
 -0.14870526D-05 -0.36967012D-07  0.18698436D-07  0.42830636D-04  0.72648865D-04
  0.82708165D-04 -0.38945749D-04
MO    3     MO 0.0        OCC NO =    1.0000000  ORB. ENERGY =  -14.134906
  0.20948592D-05  0.38586958D-05  0.62039899D-05  0.80064275D-05  0.67957438D-05
  0.23422309D-05 -0.44210568D-04 -0.15761109D-04  0.55513483D-04 -0.25332870D-03
 -0.18643969D-03 -0.10077717D-03 -0.17966031D-03 -0.13222273D-03 -0.71471004D-04
  0.89822812D-07  0.66105960D-07  0.35732582D-07 -0.80289695D-04  0.36058899D-04
  0.18836024D-04 -0.22659769D-07  0.15723930D-03  0.31579638D-04 -0.35665685D-04
  0.19993494D-03 -0.10319893D-06 -0.44083531D-07  0.24719241D-05  0.41928512D-05
  0.47734129D-05  0.37253074D-05 -0.13936510D-05 -0.25670820D-05 -0.41273403D-05
 -0.53264514D-05 -0.45210175D-05 -0.15582204D-05  0.13762827D-04  0.49064607D-05
 -0.17281445D-04 -0.48559488D-04 -0.35737821D-04 -0.19317541D-04  0.41660071D-04
  0.30660129D-04  0.16572871D-04 -0.29757306D-07 -0.21900174D-07 -0.11837810D-07
  0.11861564D-04  0.14922363D-04 -0.53180927D-05  0.84078060D-08 -0.31731723D-04
 -0.65353542D-05  0.52007828D-05  0.49695006D-04 -0.19999356D-07  0.10864099D-07
  0.96870638D-06  0.16431094D-05  0.18706219D-05 -0.35380072D-05 -0.32168906D-06
 -0.59254590D-06 -0.95269204D-06 -0.12294765D-05 -0.10435625D-05 -0.35967575D-06
  0.10082153D-04  0.35942971D-05 -0.12659766D-04  0.46677376D-05  0.34352662D-05
  0.18568814D-05 -0.63039887D-04 -0.46394810D-04 -0.25078016D-04 -0.17420504D-07
 -0.12820787D-07 -0.69300835D-08  0.16031190D-04 -0.38179574D-06  0.77386264D-05
  0.46318320D-08  0.52342684D-05 -0.44975823D-04  0.87212016D-05 -0.55874094D-05
 -0.16860938D-08 -0.16600186D-07 -0.64249738D-06 -0.10897972D-05 -0.12406956D-05
  0.64751161D-07  0.20191284D-05  0.37192011D-05  0.59797110D-05  0.77169891D-05
  0.65500726D-05  0.22575575D-05 -0.93278052D-05 -0.33253712D-05  0.11712561D-04
 -0.21284300D-04 -0.15664385D-04 -0.84671475D-05  0.88774863D-05  0.65334712D-05
  0.35315695D-05  0.31620636D-09  0.23271510D-09  0.12579064D-09  0.18164953D-04
 -0.11348938D-04  0.21875697D-05 -0.40931199D-08  0.41982333D-05  0.35143794D-05
  0.30402092D-05 -0.23505786D-05  0.50401811D-08 -0.26106043D-08  0.18917396D-05
  0.34845529D-05  0.56024450D-05  0.72301165D-05  0.61368219D-05  0.21151259D-05
 -0.46927666D-04 -0.16729757D-04  0.58925238D-04  0.28110396D-04  0.20688116D-04
  0.11182649D-04  0.29996445D-03  0.22076171D-03  0.11932942D-03  0.75607950D-07
  0.55644396D-07  0.30077740D-07 -0.74524038D-04  0.42081400D-06 -0.30296543D-04
 -0.18798622D-07 -0.21166334D-04  0.20222646D-03 -0.34860911D-04 -0.91199688D-05
 -0.12750960D-07  0.91465230D-07  0.30505177D-05  0.51742553D-05  0.58907068D-05
  0.36071030D-05  0.65836079D+00  0.12124264D+01  0.19589507D+01  0.25638454D+01
  0.21961634D+01  0.75550564D+00 -0.17512887D-01 -0.86575106D-02  0.22837958D-01
 -0.98929230D-03 -0.77017985D-03 -0.36570864D-03  0.45418164D-03  0.35358766D-03
  0.16789593D-03 -0.81840933D-06 -0.63714474D-06 -0.30253886D-06  0.97510946D-03
  0.42611149D-04 -0.12683408D-04  0.43641126D-07 -0.92428909D-02 -0.93532309D-02
 -0.92089870D-02 -0.20331457D-03  0.10571674D-06 -0.42497184D-07  0.55682170D-04
  0.94447499D-04  0.10752514D-03 -0.55375750D-04 -0.19406522D-04 -0.35738732D-04
 -0.57744054D-04 -0.75574553D-04 -0.64736378D-04 -0.22270064D-04 -0.20978070D-04
 -0.10370526D-04  0.27356784D-04 -0.37392306D-04 -0.29110507D-04 -0.13822698D-04
 -0.10839633D-04 -0.84388273D-05 -0.40070537D-05 -0.73101533D-08 -0.56910711D-08
 -0.27023219D-08 -0.16249049D-04  0.32489284D-04  0.91255727D-05  0.60647466D-08
 -0.35482940D-04 -0.82200195D-05  0.25652000D-04  0.40010138D-05  0.44683786D-08
  0.23371555D-07 -0.14421371D+00 -0.26558160D+00 -0.42910752D+00 -0.56160950D+00
 -0.48106887D+00 -0.16549326D+00  0.38323645D-02  0.18945326D-02 -0.49976556D-02
 -0.22251629D-03 -0.17323248D-03 -0.82256911D-04 -0.98743126D-04 -0.76873100D-04
 -0.36502067D-04  0.18357583D-06  0.14291671D-06  0.67861910D-07 -0.22515263D-03
  0.13269189D-04  0.16210091D-05 -0.11409133D-07  0.20290295D-02  0.20526337D-02
  0.20236239D-02 -0.44730924D-04  0.23187830D-07  0.10771072D-07 -0.12007967D-04
 -0.20367785D-04 -0.23188004D-04  0.10233603D-04 -0.39726933D-04 -0.73160466D-04
 -0.11820738D-03 -0.15470805D-03 -0.13252131D-03 -0.45588867D-04  0.41213577D-05
  0.20373966D-05 -0.53745218D-05 -0.64475170D-05 -0.50194950D-05 -0.23834338D-05
 -0.28967912D-06 -0.22551982D-06 -0.10708479D-06 -0.58066512D-08 -0.45205707D-08
 -0.21465269D-08  0.96993723D-06  0.59442736D-05  0.41615304D-05  0.27258012D-08
  0.71546858D-05  0.14562806D-04  0.18288831D-05  0.14893163D-04 -0.47131927D-08
  0.50088570D-08 -0.27269794D-06 -0.46254731D-06 -0.52659377D-06  0.46283032D-05
  0.15312814D-03  0.28199827D-03  0.45563237D-03  0.59632483D-03  0.51080566D-03
  0.17572306D-03 -0.34580962D-04 -0.17095128D-04  0.45095851D-04  0.53991115D-06
  0.42032945D-06  0.19958729D-06  0.17174783D-04  0.13370843D-04  0.63489491D-05
 -0.29974417D-08 -0.23335562D-08 -0.11080550D-08 -0.25880787D-04  0.24104821D-05
 -0.28328011D-04  0.28468011D-08 -0.20331659D-04 -0.43075164D-04  0.30632617D-04
  0.38957230D-04 -0.17831901D-07 -0.14300567D-07  0.28817440D-06  0.48879833D-06
  0.55647962D-06 -0.15468626D-04
MO    4     MO 0.0        OCC NO =    1.0000000  ORB. ENERGY =  -14.134906
 -0.57012256D-06 -0.10501563D-05 -0.16884355D-05 -0.21789746D-05 -0.18494832D-05
 -0.63744555D-06 -0.51948639D-05 -0.18519738D-05  0.65229878D-05 -0.63123624D-04
 -0.46456437D-04 -0.25111327D-04 -0.36817269D-04 -0.27096022D-04 -0.14646347D-04
  0.85705492D-08  0.63075779D-08  0.34094663D-08 -0.23890826D-04  0.16717659D-06
  0.28138983D-05 -0.11985670D-08  0.37428630D-04  0.73382223D-05 -0.10687787D-04
  0.37302597D-04 -0.25331649D-07 -0.83202809D-08  0.22038955D-05  0.37382240D-05
  0.42558358D-05 -0.21803486D-05  0.16646772D-05  0.30663078D-05  0.49299929D-05
  0.63622977D-05  0.54002294D-05  0.18612509D-05 -0.42333719D-04 -0.15092010D-04
  0.53156798D-04  0.25651903D-03  0.18878764D-03  0.10204632D-03 -0.17859914D-03
 -0.13144175D-03 -0.71048857D-04  0.84724180D-07  0.62353573D-07  0.33704285D-07
 -0.82924679D-04 -0.32826698D-04  0.18287516D-04 -0.20966721D-07  0.15848715D-03
  0.31755226D-04 -0.36867599D-04 -0.19722015D-03  0.10388339D-06 -0.43280693D-07
  0.31668867D-05  0.53716393D-05  0.61154215D-05  0.24726250D-05  0.19343687D-05
  0.35630750D-05  0.57286923D-05  0.73930424D-05  0.62751111D-05  0.21627888D-05
 -0.47018338D-04 -0.16762081D-04  0.59039091D-04 -0.28796556D-04 -0.21193102D-04
 -0.11455612D-04  0.30119193D-03  0.22166509D-03  0.11981773D-03  0.75858734D-07
  0.55828963D-07  0.30177505D-07 -0.74659012D-04 -0.63890052D-06 -0.29789273D-04
 -0.18542149D-07 -0.20891149D-04  0.20191480D-03 -0.34361640D-04  0.74672613D-05
  0.13170738D-07  0.94091544D-07  0.30623674D-05  0.51943547D-05  0.59135893D-05
  0.40005520D-05  0.31518251D-05  0.58056095D-05  0.93342269D-05  0.12046089D-04
  0.10224552D-04  0.35240087D-05 -0.14560856D-04 -0.51909588D-05  0.18283499D-04
  0.13635049D-04  0.10034845D-04  0.54241843D-05  0.13857808D-04  0.10198787D-04
  0.55128006D-05  0.51381853D-09  0.37814968D-09  0.20440311D-09  0.28355222D-04
  0.72701594D-05  0.34146957D-05 -0.63688067D-08  0.65527179D-05  0.54855488D-05
  0.47456210D-05  0.15055368D-05 -0.32794284D-08 -0.41317225D-08  0.51644053D-06
  0.95127489D-06  0.15294545D-05  0.19738051D-05  0.16753382D-05  0.57742448D-06
 -0.10496957D-04 -0.37421748D-05  0.13180619D-04  0.77978779D-05  0.57389230D-05
  0.31020884D-05  0.68644503D-04  0.50519580D-04  0.27307598D-04  0.15738121D-07
  0.11582621D-07  0.62608116D-08 -0.16647675D-04  0.61387728D-06 -0.54233000D-05
 -0.35508732D-08 -0.39785161D-05  0.43552036D-04 -0.64420902D-05  0.19539693D-05
 -0.39908995D-08  0.24029009D-07  0.69654206D-06  0.11814672D-05  0.13450586D-05
  0.17311754D-05  0.14421666D+00  0.26558704D+00  0.42911630D+00  0.56162098D+00
  0.48107871D+00  0.16549665D+00 -0.38404840D-02 -0.18985465D-02  0.50082441D-02
 -0.21031044D-03 -0.16373004D-03 -0.77744813D-04  0.10031141D-03  0.78094038D-04
  0.37081811D-04 -0.17273119D-06 -0.13447399D-06 -0.63853009D-07  0.20088169D-03
  0.50022659D-05 -0.40523347D-05  0.74791430D-08 -0.20198747D-02 -0.20446679D-02
 -0.20102234D-02 -0.44322381D-04  0.22927460D-07 -0.77415499D-08  0.12405670D-04
  0.21042364D-04  0.23955988D-04 -0.14217865D-04 -0.30293436D-04 -0.55787893D-04
 -0.90138036D-04 -0.11797131D-03 -0.10105300D-03 -0.34763403D-04 -0.32746384D-04
 -0.16188202D-04  0.42703440D-04  0.23954394D-04  0.18648879D-04  0.88551472D-05
 -0.16920557D-04 -0.13172924D-04 -0.62549703D-05 -0.11235130D-07 -0.87467285D-08
 -0.41532561D-08 -0.25364279D-04 -0.20813186D-04  0.14244862D-04  0.93413841D-08
 -0.55388090D-04 -0.12831215D-04  0.40042466D-04 -0.25633007D-05 -0.29879108D-08
  0.36143563D-07  0.65836143D+00  0.12124276D+01  0.19589527D+01  0.25638479D+01
  0.21961655D+01  0.75550638D+00 -0.17514665D-01 -0.86583892D-02  0.22840276D-01
  0.98661804D-03  0.76809790D-03  0.36472005D-03  0.45452834D-03  0.35385757D-03
  0.16802409D-03 -0.80776491D-06 -0.62885789D-06 -0.29860397D-06  0.96979231D-03
 -0.40800387D-04 -0.13216198D-04  0.42399579D-07 -0.92408839D-02 -0.93514844D-02
 -0.92060507D-02  0.20322555D-03 -0.10465920D-06 -0.42104518D-07  0.55769274D-04
  0.94595244D-04  0.10769334D-03 -0.56248365D-04  0.15028429D-03  0.27676107D-03
  0.44717049D-03  0.58525005D-03  0.50131911D-03  0.17245958D-03 -0.36170325D-04
 -0.17880831D-04  0.47168485D-04 -0.35614565D-05 -0.27726507D-05 -0.13165526D-05
  0.18772312D-04  0.14614545D-04  0.69395028D-05 -0.57463125D-08 -0.44735961D-08
 -0.21242217D-08 -0.28043096D-04  0.81851543D-07 -0.29268441D-04  0.42079629D-08
 -0.19088706D-04 -0.40716295D-04  0.34561927D-04 -0.36031132D-04  0.17346791D-07
 -0.13818402D-07  0.19178005D-06  0.32529526D-06  0.37033715D-06 -0.14898018D-04
  0.26736794D-04  0.49238041D-04  0.79555260D-04  0.10412073D-03  0.89188739D-04
  0.30681960D-04 -0.11376906D-04 -0.56241830D-05  0.14836234D-04  0.73461492D-05
  0.57190944D-05  0.27156283D-05  0.75847915D-05  0.59048813D-05  0.28038465D-05
 -0.77288426D-08 -0.60170274D-08 -0.28570974D-08 -0.10842413D-04 -0.54341807D-05
 -0.84551205D-05  0.42621461D-08 -0.14801275D-05 -0.37916794D-05  0.16109913D-04
  0.15334011D-05 -0.30160599D-08 -0.11514390D-08 -0.16758748D-06 -0.28426008D-06
 -0.32362005D-06 -0.20235766D-05
MO    5     MO 0.0        OCC NO =    1.0000000  ORB. ENERGY =  -14.112308
  0.87627262D-07  0.16140796D-06  0.25951083D-06  0.33490620D-06  0.28426370D-06
  0.97974738D-07 -0.42292482D-04 -0.15077309D-04  0.53105018D-04  0.24921388D-03
  0.18341134D-03  0.99140239D-04 -0.17286078D-03 -0.12721855D-03 -0.68766070D-04
  0.42003881D-07  0.30913159D-07  0.16709643D-07 -0.56912057D-04 -0.25285912D-04