 Generated by Multiwfn
GAUSSIAN             67 MOL ORBITALS    312 PRIMITIVES       18 NUCLEI
  B    1    (CENTRE  1)  -2.37326553  2.76369926 -0.00019234  CHARGE =  5.0
  H    2    (CENTRE  2)  -2.41244827  5.01305645 -0.00126472  CHARGE =  1.0
  B    3    (CENTRE  3)   2.37326359  2.76369903 -0.00018718  CHARGE =  5.0
  H    4    (CENTRE  4)   2.41244672  5.01305626 -0.00125113  CHARGE =  1.0
  B    5    (CENTRE  5)   4.74691640 -1.34804574 -0.00011660  CHARGE =  5.0
  H    6    (CENTRE  6)   6.69889495 -2.47106098 -0.00102217  CHARGE =  1.0
  B    7    (CENTRE  7)   0.00000255 -1.34117055  0.00035247  CHARGE =  5.0
  B    8    (CENTRE  8)  -4.74691345 -1.34804611 -0.00011331  CHARGE =  5.0
  H    9    (CENTRE  9)  -6.69889151 -2.47106296 -0.00101749  CHARGE =  1.0
  N   10    (CENTRE 10)  -4.66889163  1.35458249  0.00044240  CHARGE =  7.0
  H   11    (CENTRE 11)  -6.31182452  2.31239821 -0.00017981  CHARGE =  1.0
  N   12    (CENTRE 12)  -0.00000178  1.41486951  0.00009526  CHARGE =  7.0
  N   13    (CENTRE 13)   4.66889027  1.35458319  0.00044433  CHARGE =  7.0
  H   14    (CENTRE 14)   6.31182199  2.31240106 -0.00016832  CHARGE =  1.0
  N   15    (CENTRE 15)   2.38700305 -2.63887788  0.00007120  CHARGE =  7.0
  H   16    (CENTRE 16)   2.40702509 -4.54170195 -0.00086631  CHARGE =  1.0
  N   17    (CENTRE 17)  -2.38700071 -2.63888018  0.00007672  CHARGE =  7.0
  H   18    (CENTRE 18)  -2.40703668 -4.54170535 -0.00085470  CHARGE =  1.0
CENTRE ASSIGNMENTS    1  1  1  1  1  1  1  1  1  1  1  1  1  1  1  1  1  1  1  1
CENTRE ASSIGNMENTS    1  1  1  1  1  1  1  1  2  2  2  2  3  3  3  3  3  3  3  3
CENTRE ASSIGNMENTS    3  3  3  3  3  3  3  3  3  3  3  3  3  3  3  3  3  3  3  3
CENTRE ASSIGNMENTS    4  4  4  4  5  5  5  5  5  5  5  5  5  5  5  5  5  5  5  5
CENTRE ASSIGNMENTS    5  5  5  5  5  5  5  5  5  5  5  5  6  6  6  6  7  7  7  7
CENTRE ASSIGNMENTS    7  7  7  7  7  7  7  7  7  7  7  7  7  7  7  7  7  7  7  7
CENTRE ASSIGNMENTS    7  7  7  7  8  8  8  8  8  8  8  8  8  8  8  8  8  8  8  8
CENTRE ASSIGNMENTS    8  8  8  8  8  8  8  8  8  8  8  8  9  9  9  9 10 10 10 10
CENTRE ASSIGNMENTS   10 10 10 10 10 10 10 10 10 10 10 10 10 10 10 10 10 10 10 10
CENTRE ASSIGNMENTS   10 10 10 10 11 11 11 11 12 12 12 12 12 12 12 12 12 12 12 12
CENTRE ASSIGNMENTS   12 12 12 12 12 12 12 12 12 12 12 12 12 12 12 12 13 13 13 13
CENTRE ASSIGNMENTS   13 13 13 13 13 13 13 13 13 13 13 13 13 13 13 13 13 13 13 13
CENTRE ASSIGNMENTS   13 13 13 13 14 14 14 14 15 15 15 15 15 15 15 15 15 15 15 15
CENTRE ASSIGNMENTS   15 15 15 15 15 15 15 15 15 15 15 15 15 15 15 15 16 16 16 16
CENTRE ASSIGNMENTS   17 17 17 17 17 17 17 17 17 17 17 17 17 17 17 17 17 17 17 17
CENTRE ASSIGNMENTS   17 17 17 17 17 17 17 17 18 18 18 18
TYPE ASSIGNMENTS      1  1  1  1  1  1  1  1  1  2  2  2  3  3  3  4  4  4  1  2
TYPE ASSIGNMENTS      3  4  5  6  7  8  9 10  1  1  1  1  1  1  1  1  1  1  1  1
TYPE ASSIGNMENTS      1  2  2  2  3  3  3  4  4  4  1  2  3  4  5  6  7  8  9 10
TYPE ASSIGNMENTS      1  1  1  1  1  1  1  1  1  1  1  1  1  2  2  2  3  3  3  4
TYPE ASSIGNMENTS      4  4  1  2  3  4  5  6  7  8  9 10  1  1  1  1  1  1  1  1
TYPE ASSIGNMENTS      1  1  1  1  1  2  2  2  3  3  3  4  4  4  1  2  3  4  5  6
TYPE ASSIGNMENTS      7  8  9 10  1  1  1  1  1  1  1  1  1  2  2  2  3  3  3  4
TYPE ASSIGNMENTS      4  4  1  2  3  4  5  6  7  8  9 10  1  1  1  1  1  1  1  1
TYPE ASSIGNMENTS      1  1  1  1  1  2  2  2  3  3  3  4  4  4  1  2  3  4  5  6
TYPE ASSIGNMENTS      7  8  9 10  1  1  1  1  1  1  1  1  1  1  1  1  1  2  2  2
TYPE ASSIGNMENTS      3  3  3  4  4  4  1  2  3  4  5  6  7  8  9 10  1  1  1  1
TYPE ASSIGNMENTS      1  1  1  1  1  2  2  2  3  3  3  4  4  4  1  2  3  4  5  6
TYPE ASSIGNMENTS      7  8  9 10  1  1  1  1  1  1  1  1  1  1  1  1  1  2  2  2
TYPE ASSIGNMENTS      3  3  3  4  4  4  1  2  3  4  5  6  7  8  9 10  1  1  1  1
TYPE ASSIGNMENTS      1  1  1  1  1  1  1  1  1  2  2  2  3  3  3  4  4  4  1  2
TYPE ASSIGNMENTS      3  4  5  6  7  8  9 10  1  1  1  1
EXPONENTS  0.2068882D+04 0.3106496D+03 0.7068303D+02 0.1986108D+02 0.6299305D+01
EXPONENTS  0.2127027D+01 0.4727971D+01 0.1190338D+01 0.3594117D+00 0.4727971D+01
EXPONENTS  0.1190338D+01 0.3594117D+00 0.4727971D+01 0.1190338D+01 0.3594117D+00
EXPONENTS  0.4727971D+01 0.1190338D+01 0.3594117D+00 0.1267512D+00 0.1267512D+00
EXPONENTS  0.1267512D+00 0.1267512D+00 0.6000000D+00 0.6000000D+00 0.6000000D+00
EXPONENTS  0.6000000D+00 0.6000000D+00 0.6000000D+00 0.1873114D+02 0.2825394D+01
EXPONENTS  0.6401217D+00 0.1612778D+00 0.2068882D+04 0.3106496D+03 0.7068303D+02
EXPONENTS  0.1986108D+02 0.6299305D+01 0.2127027D+01 0.4727971D+01 0.1190338D+01
EXPONENTS  0.3594117D+00 0.4727971D+01 0.1190338D+01 0.3594117D+00 0.4727971D+01
EXPONENTS  0.1190338D+01 0.3594117D+00 0.4727971D+01 0.1190338D+01 0.3594117D+00
EXPONENTS  0.1267512D+00 0.1267512D+00 0.1267512D+00 0.1267512D+00 0.6000000D+00
EXPONENTS  0.6000000D+00 0.6000000D+00 0.6000000D+00 0.6000000D+00 0.6000000D+00
EXPONENTS  0.1873114D+02 0.2825394D+01 0.6401217D+00 0.1612778D+00 0.2068882D+04
EXPONENTS  0.3106496D+03 0.7068303D+02 0.1986108D+02 0.6299305D+01 0.2127027D+01
EXPONENTS  0.4727971D+01 0.1190338D+01 0.3594117D+00 0.4727971D+01 0.1190338D+01
EXPONENTS  0.3594117D+00 0.4727971D+01 0.1190338D+01 0.3594117D+00 0.4727971D+01
EXPONENTS  0.1190338D+01 0.3594117D+00 0.1267512D+00 0.1267512D+00 0.1267512D+00
EXPONENTS  0.1267512D+00 0.6000000D+00 0.6000000D+00 0.6000000D+00 0.6000000D+00
EXPONENTS  0.6000000D+00 0.6000000D+00 0.1873114D+02 0.2825394D+01 0.6401217D+00
EXPONENTS  0.1612778D+00 0.2068882D+04 0.3106496D+03 0.7068303D+02 0.1986108D+02
EXPONENTS  0.6299305D+01 0.2127027D+01 0.4727971D+01 0.1190338D+01 0.3594117D+00
EXPONENTS  0.4727971D+01 0.1190338D+01 0.3594117D+00 0.4727971D+01 0.1190338D+01
EXPONENTS  0.3594117D+00 0.4727971D+01 0.1190338D+01 0.3594117D+00 0.1267512D+00
EXPONENTS  0.1267512D+00 0.1267512D+00 0.1267512D+00 0.6000000D+00 0.6000000D+00
EXPONENTS  0.6000000D+00 0.6000000D+00 0.6000000D+00 0.6000000D+00 0.2068882D+04
EXPONENTS  0.3106496D+03 0.7068303D+02 0.1986108D+02 0.6299305D+01 0.2127027D+01
EXPONENTS  0.4727971D+01 0.1190338D+01 0.3594117D+00 0.4727971D+01 0.1190338D+01
EXPONENTS  0.3594117D+00 0.4727971D+01 0.1190338D+01 0.3594117D+00 0.4727971D+01
EXPONENTS  0.1190338D+01 0.3594117D+00 0.1267512D+00 0.1267512D+00 0.1267512D+00
EXPONENTS  0.1267512D+00 0.6000000D+00 0.6000000D+00 0.6000000D+00 0.6000000D+00
EXPONENTS  0.6000000D+00 0.6000000D+00 0.1873114D+02 0.2825394D+01 0.6401217D+00
EXPONENTS  0.1612778D+00 0.4173511D+04 0.6274579D+03 0.1429021D+03 0.4023433D+02
EXPONENTS  0.1282021D+02 0.4390437D+01 0.1162636D+02 0.2716280D+01 0.7722184D+00
EXPONENTS  0.1162636D+02 0.2716280D+01 0.7722184D+00 0.1162636D+02 0.2716280D+01
EXPONENTS  0.7722184D+00 0.1162636D+02 0.2716280D+01 0.7722184D+00 0.2120315D+00
EXPONENTS  0.2120315D+00 0.2120315D+00 0.2120315D+00 0.8000000D+00 0.8000000D+00
EXPONENTS  0.8000000D+00 0.8000000D+00 0.8000000D+00 0.8000000D+00 0.1873114D+02
EXPONENTS  0.2825394D+01 0.6401217D+00 0.1612778D+00 0.4173511D+04 0.6274579D+03
EXPONENTS  0.1429021D+03 0.4023433D+02 0.1282021D+02 0.4390437D+01 0.1162636D+02
EXPONENTS  0.2716280D+01 0.7722184D+00 0.1162636D+02 0.2716280D+01 0.7722184D+00
EXPONENTS  0.1162636D+02 0.2716280D+01 0.7722184D+00 0.1162636D+02 0.2716280D+01
EXPONENTS  0.7722184D+00 0.2120315D+00 0.2120315D+00 0.2120315D+00 0.2120315D+00
EXPONENTS  0.8000000D+00 0.8000000D+00 0.8000000D+00 0.8000000D+00 0.8000000D+00
EXPONENTS  0.8000000D+00 0.4173511D+04 0.6274579D+03 0.1429021D+03 0.4023433D+02
EXPONENTS  0.1282021D+02 0.4390437D+01 0.1162636D+02 0.2716280D+01 0.7722184D+00
EXPONENTS  0.1162636D+02 0.2716280D+01 0.7722184D+00 0.1162636D+02 0.2716280D+01
EXPONENTS  0.7722184D+00 0.1162636D+02 0.2716280D+01 0.7722184D+00 0.2120315D+00
EXPONENTS  0.2120315D+00 0.2120315D+00 0.2120315D+00 0.8000000D+00 0.8000000D+00
EXPONENTS  0.8000000D+00 0.8000000D+00 0.8000000D+00 0.8000000D+00 0.1873114D+02
EXPONENTS  0.2825394D+01 0.6401217D+00 0.1612778D+00 0.4173511D+04 0.6274579D+03
EXPONENTS  0.1429021D+03 0.4023433D+02 0.1282021D+02 0.4390437D+01 0.1162636D+02
EXPONENTS  0.2716280D+01 0.7722184D+00 0.1162636D+02 0.2716280D+01 0.7722184D+00
EXPONENTS  0.1162636D+02 0.2716280D+01 0.7722184D+00 0.1162636D+02 0.2716280D+01
EXPONENTS  0.7722184D+00 0.2120315D+00 0.2120315D+00 0.2120315D+00 0.2120315D+00
EXPONENTS  0.8000000D+00 0.8000000D+00 0.8000000D+00 0.8000000D+00 0.8000000D+00
EXPONENTS  0.8000000D+00 0.1873114D+02 0.2825394D+01 0.6401217D+00 0.1612778D+00
EXPONENTS  0.4173511D+04 0.6274579D+03 0.1429021D+03 0.4023433D+02 0.1282021D+02
EXPONENTS  0.4390437D+01 0.1162636D+02 0.2716280D+01 0.7722184D+00 0.1162636D+02
EXPONENTS  0.2716280D+01 0.7722184D+00 0.1162636D+02 0.2716280D+01 0.7722184D+00
EXPONENTS  0.1162636D+02 0.2716280D+01 0.7722184D+00 0.2120315D+00 0.2120315D+00
EXPONENTS  0.2120315D+00 0.2120315D+00 0.8000000D+00 0.8000000D+00 0.8000000D+00
EXPONENTS  0.8000000D+00 0.8000000D+00 0.8000000D+00 0.1873114D+02 0.2825394D+01
EXPONENTS  0.6401217D+00 0.1612778D+00
MO    1     MO 0.0        OCC NO =    1.0000000  ORB. ENERGY =  -14.554756
 -0.12131240D-06 -0.22345542D-06 -0.35927040D-06 -0.46364879D-06 -0.39353862D-06
 -0.13563759D-06 -0.14070956D-05 -0.50163087D-06  0.17668349D-05 -0.20399323D-05
 -0.15013077D-05 -0.81150929D-06 -0.81978272D-05 -0.60332695D-05 -0.32611930D-05
 -0.18101838D-08 -0.13322221D-08 -0.72011261D-09  0.22403544D-04 -0.33103035D-05
 -0.21556707D-04  0.74449849D-08 -0.40879963D-05 -0.35963158D-06 -0.69287781D-06
  0.63405906D-05 -0.63545977D-08 -0.44161666D-08  0.29047073D-06  0.49269334D-06
  0.56091396D-06  0.15217766D-04  0.20763642D-06  0.38246285D-06  0.61492166D-06
  0.79357411D-06  0.67357461D-06  0.23215520D-06  0.99085459D-06  0.35324058D-06
 -0.12441774D-05 -0.19701515D-05 -0.14499519D-05 -0.78374968D-06  0.60446372D-05
  0.44486087D-05  0.24046285D-05  0.20640298D-08  0.15190426D-08  0.82109559D-09
 -0.21766656D-04 -0.31593853D-05  0.20171715D-04 -0.70808580D-08  0.49914462D-05
  0.64104611D-06  0.64604332D-06  0.70023866D-05 -0.55150432D-08  0.38895545D-08
 -0.24077719D-06 -0.40840368D-06 -0.46495316D-06 -0.13942415D-04 -0.73384715D-06
 -0.13517343D-05 -0.21733109D-05 -0.28047203D-05 -0.23806074D-05 -0.82050358D-06
  0.30724596D-04  0.10953347D-04 -0.38579675D-04  0.20202809D-03  0.14868451D-03
  0.80369175D-04  0.95392606D-04  0.70205103D-04  0.37948311D-04 -0.23053693D-07
 -0.16966587D-07 -0.91710329D-08  0.47693426D-04 -0.14966701D-04 -0.11325529D-04
  0.28103509D-08 -0.10697109D-03 -0.27155437D-04  0.30342595D-04 -0.14736307D-03
  0.26161737D-07  0.82460675D-08 -0.18421352D-05 -0.31246100D-05 -0.35572581D-05
 -0.53603040D-05  0.30795556D-06  0.56724904D-06  0.91201988D-06  0.11769879D-05
  0.99901090D-06  0.34432054D-06 -0.51053345D-05 -0.18200565D-05  0.64105691D-05
 -0.39561807D-03 -0.29115892D-03 -0.15738157D-03 -0.14126223D-04 -0.10396329D-04
 -0.56195793D-05 -0.26458967D-08 -0.19472731D-08 -0.10525691D-08 -0.69894449D-05
  0.98575898D-04  0.22713839D-05 -0.43556890D-09  0.16529998D-04  0.57057747D-05
 -0.37757107D-05  0.27215324D-03  0.43222836D-07  0.19903439D-08  0.11717174D-05
  0.21582840D-05  0.34700771D-05  0.44782344D-05  0.38010628D-05  0.13100798D-05
 -0.36071407D-04 -0.12859490D-04  0.45293457D-04  0.23223675D-03  0.17091687D-03
  0.92386539D-04 -0.10875017D-03 -0.80035728D-04 -0.43262108D-04  0.27007053D-07
  0.19876100D-07  0.10743726D-07 -0.56143135D-04 -0.17417559D-04  0.13839719D-04
 -0.32091061D-08  0.12381705D-03  0.32548353D-04 -0.34238682D-04 -0.16956982D-03
  0.30022916D-07 -0.94913657D-08  0.21383535D-05  0.36270523D-05  0.41292708D-05
  0.66818646D-05 -0.11939634D-04 -0.21987834D-04 -0.35526349D-04 -0.46496354D-04
 -0.39828294D-04 -0.13701395D-04 -0.23004478D-04 -0.11372283D-04  0.29999354D-04
  0.21933776D-05  0.17075795D-05  0.81081913D-06  0.18792126D-05  0.14629970D-05
  0.69468273D-06 -0.21087713D-08 -0.16417121D-08 -0.77954299D-09 -0.27008601D-04
 -0.13488862D-04  0.77044321D-05  0.38584703D-08 -0.16686161D-04 -0.30742227D-04
  0.20546882D-04  0.31593617D-04 -0.21559841D-08 -0.23217998D-07  0.18480678D-05
  0.31346727D-05  0.35687141D-05 -0.89215537D-05 -0.41547497D-06 -0.76513187D-06
 -0.12362447D-05 -0.16179785D-05 -0.13859436D-05 -0.47678065D-06 -0.31037217D-05
 -0.15343275D-05  0.40474575D-05 -0.18362964D-04 -0.14295861D-04 -0.67881805D-05
 -0.13273379D-05 -0.10333537D-05 -0.49067290D-06 -0.10572465D-08 -0.82308332D-09
 -0.39082907D-09 -0.37665259D-05  0.86622070D-05  0.19997077D-05  0.39192352D-09
 -0.14158537D-05 -0.39489039D-05  0.35263810D-05 -0.48871566D-04 -0.16155890D-07
  0.61362705D-09  0.10767978D-04  0.19830131D-04  0.32040090D-04  0.41933589D-04
  0.35919878D-04  0.12356854D-04  0.19583092D-04  0.96809181D-05 -0.25537641D-04
  0.88454022D-06  0.68862868D-06  0.32698526D-06 -0.25965954D-05 -0.20214910D-05
 -0.95987542D-06  0.23003281D-08  0.17908421D-08  0.85035519D-09  0.23253858D-04
 -0.11108598D-04 -0.52971285D-05 -0.34645420D-08  0.15155011D-04  0.26251002D-04
 -0.16688175D-04  0.28039347D-04 -0.20945494D-08  0.20283913D-07 -0.18221290D-05
 -0.30906757D-05 -0.35186251D-05  0.73291946D-05 -0.44437114D+00 -0.81834658D+00
 -0.13222251D+01 -0.17305084D+01 -0.14823356D+01 -0.50994061D+00  0.11952258D-01
  0.59086090D-02 -0.15586532D-01  0.47201507D-04  0.36747127D-04  0.17448836D-04
  0.55302665D-03  0.43054008D-03  0.20443566D-03  0.30950351D-06  0.24095343D-06
  0.11441321D-06 -0.77567326D-03  0.23788895D-04 -0.27286547D-04 -0.12155387D-07
  0.65517561D-02  0.64254999D-02  0.63264155D-02  0.18873201D-04 -0.56580008D-07
  0.46908848D-07 -0.42501364D-04 -0.72090358D-04 -0.82072324D-04  0.56258362D-04
  0.50660018D+00  0.93294657D+00  0.15073875D+01  0.19728462D+01  0.16899196D+01
  0.58135191D+00 -0.13633417D-01 -0.67396913D-02  0.17778874D-01  0.57371049D-04
  0.44664278D-04  0.21208179D-04 -0.63118104D-03 -0.49138452D-03 -0.23332675D-03
 -0.35136082D-06 -0.27354001D-06 -0.12988647D-06  0.87202970D-03  0.22744428D-04
  0.28005481D-04  0.13975596D-07 -0.74770897D-02 -0.73250478D-02 -0.72027961D-02
  0.19096168D-04 -0.64529749D-07 -0.56469409D-07  0.48874099D-04  0.82899722D-04
  0.94378403D-04 -0.62886349D-04
MO    2     MO 0.0        OCC NO =    1.0000000  ORB. ENERGY =  -14.554753
  0.67012133D-06  0.12343524D-05  0.19845849D-05  0.25611640D-05  0.21738802D-05
  0.74925269D-06 -0.31016222D-05 -0.11057312D-05  0.38945859D-05 -0.40185113D-06
 -0.29574619D-06 -0.15986115D-06 -0.15985009D-04 -0.11764321D-04 -0.63590265D-05
  0.21732255D-08  0.15994062D-08  0.86453493D-09  0.34225936D-05 -0.94116565D-06
 -0.92183742D-05  0.19055078D-08  0.71999912D-05  0.21813523D-05 -0.31490711D-06
 -0.54928872D-05 -0.52561912D-08 -0.37693531D-08  0.36240453D-06  0.61470667D-06
  0.69982181D-06  0.87915140D-05  0.64863846D-06  0.11947813D-05  0.19209628D-05
  0.24790577D-05  0.21041896D-05  0.72523301D-06 -0.32587308D-05 -0.11617406D-05
  0.40918610D-05  0.66388936D-06  0.48859575D-06  0.26410307D-06 -0.16917231D-04
 -0.12450398D-04 -0.67298754D-05  0.18277641D-08  0.13451606D-08  0.72710628D-09
  0.63128795D-05  0.13644006D-05 -0.11948697D-04  0.28428526D-08  0.66058413D-05
  0.21158640D-05 -0.40242511D-06  0.46200040D-05  0.60738535D-08 -0.43085691D-08
  0.39716350D-06  0.67366447D-06  0.76694319D-06  0.10699440D-04  0.34079421D-05
  0.62773729D-05  0.10092726D-04  0.13024953D-04  0.11055398D-04  0.38103694D-05
 -0.43038694D-04 -0.15343334D-04  0.54042007D-04 -0.24503402D-03 -0.18033514D-03
 -0.97477442D-04 -0.10874343D-03 -0.80030769D-04 -0.43259427D-04  0.30403022D-07
  0.22375395D-07  0.12094683D-07 -0.67965267D-04  0.19786600D-04  0.20037524D-04
 -0.31242323D-08  0.13627454D-03  0.43160732D-04 -0.31883046D-04  0.18005393D-03
 -0.28944525D-07 -0.80837679D-08  0.23941065D-05  0.40608578D-05  0.46231431D-05
  0.10494340D-04  0.47085109D-05  0.86729990D-05  0.13944400D-04  0.17995650D-04
  0.15274456D-04  0.52645160D-05 -0.78034104D-04 -0.27819231D-04  0.97984378D-04
  0.25888671D-04  0.19053016D-04  0.10298821D-04 -0.21588508D-03 -0.15888269D-03
 -0.85881648D-04 -0.46754411D-07 -0.34409357D-07 -0.18599460D-07 -0.10681475D-03
 -0.64500248D-05  0.34703102D-04 -0.51650906D-08  0.25259716D-03  0.87190142D-04
 -0.57704585D-04 -0.17807779D-04 -0.35263124D-08  0.35646431D-07  0.32832495D-05
  0.60476912D-05  0.97234445D-05  0.12548385D-04  0.10650894D-04  0.36709525D-05
 -0.38667993D-04 -0.13785176D-04  0.48553889D-04  0.21661737D-03  0.15942163D-03
  0.86172963D-04 -0.95385432D-04 -0.70199823D-04 -0.37945457D-04  0.27370984D-07
  0.20143938D-07  0.10888503D-07 -0.61170053D-04 -0.17667393D-04  0.18390551D-04
 -0.27674680D-08  0.12117225D-03  0.39254179D-04 -0.27657199D-04 -0.15931523D-03
  0.25622824D-07 -0.72549505D-08  0.21335951D-05  0.36189811D-05  0.41200820D-05
  0.97062092D-05 -0.82098923D-05 -0.15119203D-04 -0.24428512D-04 -0.31971671D-04
 -0.27386602D-04 -0.94213083D-05 -0.24750581D-04 -0.12235471D-04  0.32276387D-04
  0.98978905D-05  0.77056658D-05  0.36589227D-05 -0.56280691D-05 -0.43815417D-05
 -0.20805110D-05  0.11257404D-08  0.87640687D-09  0.41614898D-09 -0.27048670D-04
 -0.17382359D-04  0.17970121D-04  0.31129613D-08 -0.10657569D-04 -0.32453500D-04
  0.28266464D-04  0.25210004D-04  0.32753319D-09 -0.22194689D-07  0.78437457D-07
  0.13304477D-06  0.15146677D-06 -0.11635830D-04 -0.63512426D-05 -0.11696344D-04
 -0.18898105D-04 -0.24733557D-04 -0.21186509D-04 -0.72884044D-05 -0.47427908D-04
 -0.23446026D-04  0.61849115D-04  0.12019865D-05  0.93576569D-06  0.44433465D-06
 -0.20279329D-04 -0.15787782D-04 -0.74965971D-05 -0.15847431D-07 -0.12337478D-07
 -0.58582709D-08 -0.57550939D-04 -0.56715713D-06  0.30555664D-04  0.56465825D-08
 -0.21638543D-04 -0.60350909D-04  0.53885991D-04  0.31981140D-05  0.11727314D-08
  0.88868213D-08 -0.96958742D-05 -0.17855762D-04 -0.28850048D-04 -0.37758510D-04
 -0.32343548D-04 -0.11126555D-04 -0.27537334D-04 -0.13613104D-04  0.35910496D-04
 -0.10099026D-04 -0.78622527D-05 -0.37332757D-05 -0.53352692D-05 -0.41535923D-05
 -0.19722725D-05  0.74632677D-09  0.58102731D-09  0.27589232D-09 -0.30337472D-04
  0.18991792D-04  0.18821021D-04  0.36589099D-08 -0.12741192D-04 -0.36182968D-04
  0.30702883D-04 -0.29112601D-04 -0.51392421D-10 -0.25257597D-07  0.31862314D-06
  0.54044516D-06  0.61527771D-06 -0.12699254D-04  0.50660972D+00  0.93296412D+00
  0.15074158D+01  0.19728833D+01  0.16899514D+01  0.58136284D+00 -0.13682951D-01
 -0.67641783D-02  0.17843469D-01 -0.81197612D-04 -0.63213638D-04 -0.30016071D-04
 -0.63592735D-03 -0.49507960D-03 -0.23508130D-03 -0.35511457D-06 -0.27646236D-06
 -0.13127411D-06  0.79017522D-03  0.64685019D-05  0.73036718D-05  0.15267120D-07
 -0.75295314D-02 -0.73233869D-02 -0.71391393D-02 -0.29458243D-05  0.69430417D-07
 -0.83331533D-07  0.51683492D-04  0.87664985D-04  0.99803487D-04 -0.54542636D-04
  0.44438201D+00  0.81836659D+00  0.13222575D+01  0.17305508D+01  0.14823718D+01
  0.50995308D+00 -0.12008727D-01 -0.59365244D-02  0.15660171D-01  0.74345922D-04
  0.57879487D-04  0.27483228D-04 -0.55843751D-03 -0.43475252D-03 -0.20643587D-03
 -0.31007418D-06 -0.24139770D-06 -0.11462417D-06  0.68235664D-03 -0.95120741D-05
  0.36858902D-05  0.13516328D-07 -0.66115405D-02 -0.64236062D-02 -0.62538415D-02
  0.46182122D-06 -0.60407659D-07 -0.75566976D-07  0.45704181D-04  0.77522941D-04
  0.88257128D-04 -0.46746190D-04
MO    3     MO 0.0        OCC NO =    1.0000000  ORB. ENERGY =  -14.515835
  0.24519999D-05  0.45165432D-05  0.72616732D-05  0.93713984D-05  0.79543120D-05
  0.27415446D-05 -0.54547804D-04 -0.19446343D-04  0.68493547D-04 -0.27016234D-03
 -0.19882857D-03 -0.10747379D-03 -0.19291822D-03 -0.14198001D-03 -0.76745158D-04
  0.10168339D-06  0.74834865D-07  0.40450859D-07 -0.85223196D-04  0.39834787D-04
  0.18660780D-04 -0.21089732D-07  0.15384487D-03  0.30797902D-04 -0.41363340D-04
  0.19780912D-03 -0.11739638D-06 -0.55312399D-07  0.23146434D-05  0.39260733D-05
  0.44696957D-05  0.56942125D-05 -0.57897825D-06 -0.10664683D-05 -0.17146619D-05
 -0.22128205D-05 -0.18782112D-05 -0.64734696D-06  0.65688043D-05  0.23417848D-05
 -0.82481910D-05 -0.16559400D-04 -0.12187049D-04 -0.65875260D-05  0.14335089D-04
  0.10550046D-04  0.57026687D-05 -0.17043972D-07 -0.12543675D-07 -0.67802945D-08
  0.19993927D-05  0.11812760D-04 -0.52620881D-05  0.58631297D-08 -0.51346361D-05
  0.53355134D-06  0.10435154D-05  0.22650745D-04 -0.56550938D-08  0.48153085D-08
  0.14809957D-05  0.25120490D-05  0.28598790D-05 -0.15709206D-05 -0.11777975D-06
 -0.21694835D-06 -0.34880837D-06 -0.45014724D-06 -0.38207869D-06 -0.13168779D-06
  0.38831770D-05  0.13843562D-05 -0.48759537D-05  0.15339138D-05  0.11288986D-05
  0.61020914D-06 -0.21658699D-04 -0.15939927D-04 -0.86160877D-05 -0.76129513D-08
 -0.56028246D-08 -0.30285225D-08  0.57399681D-05 -0.24128288D-06  0.28720660D-05
  0.17856870D-08  0.17617545D-05 -0.16674700D-04  0.39186093D-05 -0.38460159D-05
  0.18648314D-09 -0.46511413D-08 -0.20887096D-06 -0.35428469D-06 -0.40334060D-06
 -0.90224965D-08  0.15214635D-05  0.28025106D-05  0.45058611D-05  0.58149435D-05
  0.49356428D-05  0.17011258D-05 -0.87648182D-05 -0.31246659D-05  0.11005640D-04
 -0.14442847D-04 -0.10629352D-04 -0.57455359D-05  0.94938840D-05  0.69871150D-05
  0.37767798D-05  0.98121975D-09  0.72213809D-09  0.39034087D-09  0.15511489D-04
 -0.11696452D-04  0.27390383D-05 -0.43568363D-08 -0.21447700D-06  0.15186326D-05
  0.17960124D-05  0.28217684D-05  0.44729020D-08 -0.25553413D-08  0.27028943D-05
  0.49786864D-05  0.80047046D-05  0.10330302D-04  0.87682158D-05  0.30220659D-05
 -0.55682686D-04 -0.19850929D-04  0.69918575D-04  0.33985849D-04  0.25012211D-04
  0.13519974D-04  0.32615852D-03  0.24003949D-03  0.12974973D-03  0.88892243D-07
  0.65421099D-07  0.35362390D-07 -0.81954075D-04  0.50291504D-05 -0.33156237D-04
 -0.17581862D-07 -0.20841328D-04  0.21588293D-03 -0.39766060D-04 -0.61137335D-05
 -0.99810767D-08  0.11050579D-06  0.31468342D-05  0.53376263D-05  0.60766989D-05
  0.89967411D-05  0.67206045D+00  0.12376555D+01  0.19997140D+01  0.26171958D+01
  0.22418628D+01  0.77122676D+00 -0.18045141D-01 -0.89206307D-02  0.23532052D-01
 -0.62760689D-03 -0.48860199D-03 -0.23200551D-03  0.35384550D-03  0.27547437D-03
  0.13080498D-03 -0.69757388D-06 -0.54307241D-06 -0.25786999D-06  0.10442387D-02
  0.11823298D-04  0.11040306D-05  0.31264239D-07 -0.96372808D-02 -0.97548568D-02
 -0.94712220D-02 -0.19133022D-03  0.56487211D-07 -0.52281368D-07  0.63874434D-04
  0.10834313D-03  0.12334482D-03 -0.78419146D-04 -0.20016876D-04 -0.36862749D-04
 -0.59560160D-04 -0.77951445D-04 -0.66772399D-04 -0.22970479D-04 -0.23856223D-04
 -0.11793344D-04  0.31110085D-04 -0.20197975D-04 -0.15724446D-04 -0.74665230D-05
 -0.11190755D-04 -0.87121817D-05 -0.41368520D-05 -0.91322276D-08 -0.71095851D-08
 -0.33758825D-08 -0.17496036D-04  0.23120946D-04  0.73148689D-05  0.73074533D-08
 -0.51446094D-04 -0.10768589D-04  0.24557573D-04  0.20147104D-06  0.39153445D-08
  0.27531694D-07 -0.49970279D-01 -0.92024444D-01 -0.14868643D+00 -0.19459858D+00
 -0.16669112D+00 -0.57343676D-01  0.13364209D-02  0.66066077D-03 -0.17427808D-02
 -0.53321478D-04 -0.41511622D-04 -0.19711187D-04 -0.25071135D-04 -0.19518279D-04
 -0.92679693D-05  0.57664312D-07  0.44892588D-07  0.21316589D-07 -0.94053148D-04
  0.68962726D-05 -0.24123704D-05 -0.39513655D-08  0.72148284D-03  0.73067823D-03
  0.71261600D-03 -0.12794668D-04  0.35690472D-08  0.56860720D-08 -0.45181767D-05
 -0.76636829D-05 -0.87248321D-05  0.37067213D-05 -0.15048068D-05 -0.27712275D-05
 -0.44775486D-05 -0.58601486D-05 -0.50197425D-05 -0.17268496D-05  0.61362480D-06
  0.30334593D-06 -0.80020713D-06 -0.62045266D-05 -0.48303231D-05 -0.22936083D-05
  0.21959876D-05  0.17096114D-05  0.81178397D-06 -0.65193605D-08 -0.50754263D-08
 -0.24099919D-08  0.32571725D-05  0.26753812D-05  0.19526088D-05  0.37013482D-08
  0.48180457D-05  0.64782511D-05  0.34762853D-05  0.54328724D-05 -0.33164105D-08
  0.33649732D-08 -0.28322976D-06 -0.48041127D-06 -0.54693125D-06  0.29514588D-05
  0.22219249D-04  0.40918604D-04  0.66113317D-04  0.86528119D-04  0.74119089D-04
  0.25497825D-04 -0.30525902D-04 -0.15090505D-04  0.39807785D-04  0.37067723D-05
  0.28857814D-05  0.13702711D-05  0.64180616D-05  0.49965634D-05  0.23725450D-05
 -0.62592257D-08 -0.48729072D-08 -0.23138287D-08 -0.25759729D-04  0.40855160D-05
 -0.23846834D-04  0.41445937D-08 -0.22264319D-04 -0.46177213D-04  0.28317288D-04
  0.42523861D-04 -0.18251431D-07 -0.16699608D-07  0.15156023D-05  0.25707483D-05
  0.29267061D-05 -0.14732387D-04
MO    4     MO 0.0        OCC NO =    1.0000000  ORB. ENERGY =  -14.515834
 -0.21874996D-06 -0.40293380D-06 -0.64783474D-06 -0.83604938D-06 -0.70962704D-06
 -0.24458108D-06 -0.15152455D-05 -0.54018644D-06  0.19026346D-05 -0.23656633D-04
 -0.17410326D-04 -0.94108897D-05 -0.14354458D-04 -0.10564301D-04 -0.57103739D-05
 -0.19687311D-08 -0.14489066D-08 -0.78318463D-09 -0.10722652D-04 -0.59871955D-05
 -0.25300512D-05  0.27392015D-08  0.17814147D-04  0.51449450D-05 -0.51303819D-05
  0.66778558D-05 -0.11767015D-07 -0.34314287D-08  0.18435942D-05  0.31270847D-05
  0.35600755D-05 -0.73688784D-06  0.23926676D-05  0.44072540D-05  0.70859588D-05
  0.91446338D-05  0.77618374D-05  0.26752061D-05 -0.54172001D-04 -0.19312369D-04
  0.68021666D-04  0.27069008D-03  0.19921696D-03  0.10768373D-03 -0.19291933D-03
 -0.14198083D-03 -0.76745602D-04  0.99763453D-07  0.73421871D-07  0.39687087D-07
 -0.85871816D-04 -0.38511219D-04  0.18081405D-04 -0.20362708D-07  0.15478765D-03
  0.31219888D-04 -0.41667232D-04 -0.19662130D-03  0.11733561D-06 -0.54874161D-07
  0.25618475D-05  0.43453783D-05  0.49470596D-05  0.55225789D-05  0.27153018D-05
  0.50015409D-05  0.80414499D-05  0.10377723D-04  0.88084660D-05  0.30359386D-05
 -0.55720974D-04 -0.19864579D-04  0.69966651D-04 -0.34134837D-04 -0.25121861D-04
 -0.13579244D-04  0.32654606D-03  0.24032470D-03  0.12990390D-03  0.89351212D-07
  0.65758882D-07  0.35544973D-07 -0.82006991D-04 -0.51210630D-05 -0.33095351D-04
 -0.17512219D-07 -0.20809551D-04  0.21578995D-03 -0.39622197D-04  0.56057854D-05
  0.10091765D-07  0.11204383D-06  0.31506042D-05  0.53440210D-05  0.60839790D-05
  0.90954198D-05  0.17658805D-05  0.32527226D-05  0.52297095D-05  0.67490907D-05
  0.57285339D-05  0.19744048D-05 -0.10173137D-04 -0.36267328D-05  0.12774011D-04
  0.12443530D-04  0.91579350D-05  0.49501839D-05  0.11019280D-04  0.81097452D-05
  0.43836006D-05  0.11544349D-08  0.84961747D-09  0.45924793D-09  0.18003519D-04
  0.10077262D-04  0.31790393D-05 -0.50453435D-08 -0.24951357D-06  0.17623317D-05
  0.20844385D-05 -0.24314741D-05 -0.38913689D-08 -0.29964955D-08  0.28511128D-06
  0.52517024D-06  0.84436582D-06  0.10896784D-05  0.92490380D-06  0.31877868D-06
 -0.44004871D-05 -0.15687778D-05  0.55255198D-05  0.35313567D-05  0.25989358D-05
  0.14048156D-05  0.26874223D-04  0.19778342D-04  0.10690885D-04  0.56240038D-08
  0.41390396D-08  0.22372955D-08 -0.64516643D-05  0.99597798D-06 -0.20542020D-05
 -0.82550965D-09 -0.13352789D-05  0.15423044D-04 -0.19844093D-05  0.29746029D-05
 -0.16761053D-08  0.11878659D-07  0.25938625D-06  0.43996817D-06  0.50088821D-06
  0.13362087D-05  0.49974076D-01  0.92031436D-01  0.14869773D+00  0.19461336D+00
  0.16670378D+00  0.57348033D-01 -0.13471913D-02 -0.66598515D-03  0.17568262D-02
 -0.39937994D-04 -0.31092366D-04 -0.14763755D-04  0.27564268D-04  0.21459223D-04
  0.10189598D-04 -0.45672550D-07 -0.35556810D-07 -0.16883631D-07  0.61056653D-04
 -0.52048811D-05 -0.22741001D-05  0.70815832D-09 -0.71165470D-03 -0.71993935D-03
 -0.69578772D-03 -0.15674607D-04  0.48595001D-08 -0.21156720D-08  0.49833708D-05
  0.84527400D-05  0.96231457D-05 -0.79788658D-05 -0.23232947D-04 -0.42785413D-04
 -0.69129572D-04 -0.90475749D-04 -0.77500587D-04 -0.26661100D-04 -0.27688839D-04
 -0.13688001D-04  0.36108068D-04  0.17402398D-04  0.13548045D-04  0.64330909D-05
 -0.12988660D-04 -0.10111879D-04 -0.48014780D-05 -0.10462208D-07 -0.81449964D-08
 -0.38675324D-08 -0.20306748D-04 -0.19920479D-04  0.84900298D-05  0.83915123D-08
 -0.59711034D-04 -0.12498539D-04  0.28502995D-04 -0.17377754D-06 -0.35105479D-08
  0.31700641D-07  0.67206073D+00  0.12376560D+01  0.19997149D+01  0.26171969D+01
  0.22418637D+01  0.77122709D+00 -0.18045941D-01 -0.89210262D-02  0.23533096D-01
  0.62661134D-03  0.48782694D-03  0.23163748D-03  0.35403217D-03  0.27561969D-03
  0.13087398D-03 -0.69101810D-06 -0.53796863D-06 -0.25544653D-06  0.10417849D-02
 -0.10923641D-04  0.75545407D-06  0.30848289D-07 -0.96365490D-02 -0.97540571D-02
 -0.94699703D-02  0.19154481D-03 -0.56419213D-07 -0.52910839D-07  0.63909018D-04
  0.10840179D-03  0.12341161D-03 -0.78736699D-04  0.22241324D-04  0.40959256D-04
  0.66178999D-04  0.86614084D-04  0.74192725D-04  0.25523157D-04 -0.30773504D-04
 -0.15212907D-04  0.40130675D-04 -0.46758732D-05 -0.36402420D-05 -0.17285157D-05
  0.68172823D-05  0.53073632D-05  0.25201238D-05 -0.71175220D-08 -0.55411045D-08
 -0.26311124D-08 -0.25558739D-04 -0.37309521D-05 -0.23819830D-04  0.46050711D-08
 -0.21791391D-04 -0.45722458D-04  0.29151733D-04 -0.42184672D-04  0.17862616D-07
 -0.16720519D-07  0.14901574D-05  0.25275890D-05  0.28775707D-05 -0.14454771D-04
  0.18011745D-05  0.33170133D-05  0.53593898D-05  0.70142892D-05  0.60083673D-05
  0.20669480D-05 -0.39444201D-05 -0.19499274D-05  0.51437835D-05  0.68279943D-05
  0.53157026D-05  0.25240836D-05  0.31802975D-05  0.24759124D-05  0.11756508D-05
 -0.75186220D-08 -0.58533673D-08 -0.27793858D-08 -0.55886129D-06 -0.20941429D-05
 -0.15917539D-05  0.43351747D-08  0.15424635D-05 -0.35494490D-06  0.77495158D-05
  0.86601554D-06  0.59469322D-09  0.87007007D-09 -0.59749906D-07 -0.10134715D-06
 -0.11538015D-06  0.78118671D-06
MO    5     MO 0.0        OCC NO =    1.0000000  ORB. ENERGY =  -14.485729
  0.17101890D-06  0.31501398D-06  0.50647773D-06  0.65362410D-06  0.55478700D-06
  0.19121369D-06 -0.42603931D-04 -0.15188341D-04  0.53496093D-04  0.25236445D-03
  0.18573004D-03  0.10039358D-03 -0.17522641D-03 -0.12895956D-03 -0.69707148D-04
  0.42115396D-07  0.30995230D-07  0.16754005D-07 -0.59173363D-04 -0.25977589D-04