 Generated by Multiwfn
GAUSSIAN             34 MOL ORBITALS    312 PRIMITIVES       18 NUCLEI
  B    1    (CENTRE  1)  -2.37326553  2.76369926 -0.00019234  CHARGE =  5.0
  H    2    (CENTRE  2)  -2.41244827  5.01305645 -0.00126472  CHARGE =  1.0
  B    3    (CENTRE  3)   2.37326359  2.76369903 -0.00018718  CHARGE =  5.0
  H    4    (CENTRE  4)   2.41244672  5.01305626 -0.00125113  CHARGE =  1.0
  B    5    (CENTRE  5)   4.74691640 -1.34804574 -0.00011660  CHARGE =  5.0
  H    6    (CENTRE  6)   6.69889495 -2.47106098 -0.00102217  CHARGE =  1.0
  B    7    (CENTRE  7)   0.00000255 -1.34117055  0.00035247  CHARGE =  5.0
  B    8    (CENTRE  8)  -4.74691345 -1.34804611 -0.00011331  CHARGE =  5.0
  H    9    (CENTRE  9)  -6.69889151 -2.47106296 -0.00101749  CHARGE =  1.0
  N   10    (CENTRE 10)  -4.66889163  1.35458249  0.00044240  CHARGE =  7.0
  H   11    (CENTRE 11)  -6.31182452  2.31239821 -0.00017981  CHARGE =  1.0
  N   12    (CENTRE 12)  -0.00000178  1.41486951  0.00009526  CHARGE =  7.0
  N   13    (CENTRE 13)   4.66889027  1.35458319  0.00044433  CHARGE =  7.0
  H   14    (CENTRE 14)   6.31182199  2.31240106 -0.00016832  CHARGE =  1.0
  N   15    (CENTRE 15)   2.38700305 -2.63887788  0.00007120  CHARGE =  7.0
  H   16    (CENTRE 16)   2.40702509 -4.54170195 -0.00086631  CHARGE =  1.0
  N   17    (CENTRE 17)  -2.38700071 -2.63888018  0.00007672  CHARGE =  7.0
  H   18    (CENTRE 18)  -2.40703668 -4.54170535 -0.00085470  CHARGE =  1.0
CENTRE ASSIGNMENTS    1  1  1  1  1  1  1  1  1  1  1  1  1  1  1  1  1  1  1  1
CENTRE ASSIGNMENTS    1  1  1  1  1  1  1  1  2  2  2  2  3  3  3  3  3  3  3  3
CENTRE ASSIGNMENTS    3  3  3  3  3  3  3  3  3  3  3  3  3  3  3  3  3  3  3  3
CENTRE ASSIGNMENTS    4  4  4  4  5  5  5  5  5  5  5  5  5  5  5  5  5  5  5  5
CENTRE ASSIGNMENTS    5  5  5  5  5  5  5  5  5  5  5  5  6  6  6  6  7  7  7  7
CENTRE ASSIGNMENTS    7  7  7  7  7  7  7  7  7  7  7  7  7  7  7  7  7  7  7  7
CENTRE ASSIGNMENTS    7  7  7  7  8  8  8  8  8  8  8  8  8  8  8  8  8  8  8  8
CENTRE ASSIGNMENTS    8  8  8  8  8  8  8  8  8  8  8  8  9  9  9  9 10 10 10 10
CENTRE ASSIGNMENTS   10 10 10 10 10 10 10 10 10 10 10 10 10 10 10 10 10 10 10 10
CENTRE ASSIGNMENTS   10 10 10 10 11 11 11 11 12 12 12 12 12 12 12 12 12 12 12 12
CENTRE ASSIGNMENTS   12 12 12 12 12 12 12 12 12 12 12 12 12 12 12 12 13 13 13 13
CENTRE ASSIGNMENTS   13 13 13 13 13 13 13 13 13 13 13 13 13 13 13 13 13 13 13 13
CENTRE ASSIGNMENTS   13 13 13 13 14 14 14 14 15 15 15 15 15 15 15 15 15 15 15 15
CENTRE ASSIGNMENTS   15 15 15 15 15 15 15 15 15 15 15 15 15 15 15 15 16 16 16 16
CENTRE ASSIGNMENTS   17 17 17 17 17 17 17 17 17 17 17 17 17 17 17 17 17 17 17 17
CENTRE ASSIGNMENTS   17 17 17 17 17 17 17 17 18 18 18 18
TYPE ASSIGNMENTS      1  1  1  1  1  1  1  1  1  2  2  2  3  3  3  4  4  4  1  2
TYPE ASSIGNMENTS      3  4  5  6  7  8  9 10  1  1  1  1  1  1  1  1  1  1  1  1
TYPE ASSIGNMENTS      1  2  2  2  3  3  3  4  4  4  1  2  3  4  5  6  7  8  9 10
TYPE ASSIGNMENTS      1  1  1  1  1  1  1  1  1  1  1  1  1  2  2  2  3  3  3  4
TYPE ASSIGNMENTS      4  4  1  2  3  4  5  6  7  8  9 10  1  1  1  1  1  1  1  1
TYPE ASSIGNMENTS      1  1  1  1  1  2  2  2  3  3  3  4  4  4  1  2  3  4  5  6
TYPE ASSIGNMENTS      7  8  9 10  1  1  1  1  1  1  1  1  1  2  2  2  3  3  3  4
TYPE ASSIGNMENTS      4  4  1  2  3  4  5  6  7  8  9 10  1  1  1  1  1  1  1  1
TYPE ASSIGNMENTS      1  1  1  1  1  2  2  2  3  3  3  4  4  4  1  2  3  4  5  6
TYPE ASSIGNMENTS      7  8  9 10  1  1  1  1  1  1  1  1  1  1  1  1  1  2  2  2
TYPE ASSIGNMENTS      3  3  3  4  4  4  1  2  3  4  5  6  7  8  9 10  1  1  1  1
TYPE ASSIGNMENTS      1  1  1  1  1  2  2  2  3  3  3  4  4  4  1  2  3  4  5  6
TYPE ASSIGNMENTS      7  8  9 10  1  1  1  1  1  1  1  1  1  1  1  1  1  2  2  2
TYPE ASSIGNMENTS      3  3  3  4  4  4  1  2  3  4  5  6  7  8  9 10  1  1  1  1
TYPE ASSIGNMENTS      1  1  1  1  1  1  1  1  1  2  2  2  3  3  3  4  4  4  1  2
TYPE ASSIGNMENTS      3  4  5  6  7  8  9 10  1  1  1  1
EXPONENTS  0.2068882D+04 0.3106496D+03 0.7068303D+02 0.1986108D+02 0.6299305D+01
EXPONENTS  0.2127027D+01 0.4727971D+01 0.1190338D+01 0.3594117D+00 0.4727971D+01
EXPONENTS  0.1190338D+01 0.3594117D+00 0.4727971D+01 0.1190338D+01 0.3594117D+00
EXPONENTS  0.4727971D+01 0.1190338D+01 0.3594117D+00 0.1267512D+00 0.1267512D+00
EXPONENTS  0.1267512D+00 0.1267512D+00 0.6000000D+00 0.6000000D+00 0.6000000D+00
EXPONENTS  0.6000000D+00 0.6000000D+00 0.6000000D+00 0.1873114D+02 0.2825394D+01
EXPONENTS  0.6401217D+00 0.1612778D+00 0.2068882D+04 0.3106496D+03 0.7068303D+02
EXPONENTS  0.1986108D+02 0.6299305D+01 0.2127027D+01 0.4727971D+01 0.1190338D+01
EXPONENTS  0.3594117D+00 0.4727971D+01 0.1190338D+01 0.3594117D+00 0.4727971D+01
EXPONENTS  0.1190338D+01 0.3594117D+00 0.4727971D+01 0.1190338D+01 0.3594117D+00
EXPONENTS  0.1267512D+00 0.1267512D+00 0.1267512D+00 0.1267512D+00 0.6000000D+00
EXPONENTS  0.6000000D+00 0.6000000D+00 0.6000000D+00 0.6000000D+00 0.6000000D+00
EXPONENTS  0.1873114D+02 0.2825394D+01 0.6401217D+00 0.1612778D+00 0.2068882D+04
EXPONENTS  0.3106496D+03 0.7068303D+02 0.1986108D+02 0.6299305D+01 0.2127027D+01
EXPONENTS  0.4727971D+01 0.1190338D+01 0.3594117D+00 0.4727971D+01 0.1190338D+01
EXPONENTS  0.3594117D+00 0.4727971D+01 0.1190338D+01 0.3594117D+00 0.4727971D+01
EXPONENTS  0.1190338D+01 0.3594117D+00 0.1267512D+00 0.1267512D+00 0.1267512D+00
EXPONENTS  0.1267512D+00 0.6000000D+00 0.6000000D+00 0.6000000D+00 0.6000000D+00
EXPONENTS  0.6000000D+00 0.6000000D+00 0.1873114D+02 0.2825394D+01 0.6401217D+00
EXPONENTS  0.1612778D+00 0.2068882D+04 0.3106496D+03 0.7068303D+02 0.1986108D+02
EXPONENTS  0.6299305D+01 0.2127027D+01 0.4727971D+01 0.1190338D+01 0.3594117D+00
EXPONENTS  0.4727971D+01 0.1190338D+01 0.3594117D+00 0.4727971D+01 0.1190338D+01
EXPONENTS  0.3594117D+00 0.4727971D+01 0.1190338D+01 0.3594117D+00 0.1267512D+00
EXPONENTS  0.1267512D+00 0.1267512D+00 0.1267512D+00 0.6000000D+00 0.6000000D+00
EXPONENTS  0.6000000D+00 0.6000000D+00 0.6000000D+00 0.6000000D+00 0.2068882D+04
EXPONENTS  0.3106496D+03 0.7068303D+02 0.1986108D+02 0.6299305D+01 0.2127027D+01
EXPONENTS  0.4727971D+01 0.1190338D+01 0.3594117D+00 0.4727971D+01 0.1190338D+01
EXPONENTS  0.3594117D+00 0.4727971D+01 0.1190338D+01 0.3594117D+00 0.4727971D+01
EXPONENTS  0.1190338D+01 0.3594117D+00 0.1267512D+00 0.1267512D+00 0.1267512D+00
EXPONENTS  0.1267512D+00 0.6000000D+00 0.6000000D+00 0.6000000D+00 0.6000000D+00
EXPONENTS  0.6000000D+00 0.6000000D+00 0.1873114D+02 0.2825394D+01 0.6401217D+00
EXPONENTS  0.1612778D+00 0.4173511D+04 0.6274579D+03 0.1429021D+03 0.4023433D+02
EXPONENTS  0.1282021D+02 0.4390437D+01 0.1162636D+02 0.2716280D+01 0.7722184D+00
EXPONENTS  0.1162636D+02 0.2716280D+01 0.7722184D+00 0.1162636D+02 0.2716280D+01
EXPONENTS  0.7722184D+00 0.1162636D+02 0.2716280D+01 0.7722184D+00 0.2120315D+00
EXPONENTS  0.2120315D+00 0.2120315D+00 0.2120315D+00 0.8000000D+00 0.8000000D+00
EXPONENTS  0.8000000D+00 0.8000000D+00 0.8000000D+00 0.8000000D+00 0.1873114D+02
EXPONENTS  0.2825394D+01 0.6401217D+00 0.1612778D+00 0.4173511D+04 0.6274579D+03
EXPONENTS  0.1429021D+03 0.4023433D+02 0.1282021D+02 0.4390437D+01 0.1162636D+02
EXPONENTS  0.2716280D+01 0.7722184D+00 0.1162636D+02 0.2716280D+01 0.7722184D+00
EXPONENTS  0.1162636D+02 0.2716280D+01 0.7722184D+00 0.1162636D+02 0.2716280D+01
EXPONENTS  0.7722184D+00 0.2120315D+00 0.2120315D+00 0.2120315D+00 0.2120315D+00
EXPONENTS  0.8000000D+00 0.8000000D+00 0.8000000D+00 0.8000000D+00 0.8000000D+00
EXPONENTS  0.8000000D+00 0.4173511D+04 0.6274579D+03 0.1429021D+03 0.4023433D+02
EXPONENTS  0.1282021D+02 0.4390437D+01 0.1162636D+02 0.2716280D+01 0.7722184D+00
EXPONENTS  0.1162636D+02 0.2716280D+01 0.7722184D+00 0.1162636D+02 0.2716280D+01
EXPONENTS  0.7722184D+00 0.1162636D+02 0.2716280D+01 0.7722184D+00 0.2120315D+00
EXPONENTS  0.2120315D+00 0.2120315D+00 0.2120315D+00 0.8000000D+00 0.8000000D+00
EXPONENTS  0.8000000D+00 0.8000000D+00 0.8000000D+00 0.8000000D+00 0.1873114D+02
EXPONENTS  0.2825394D+01 0.6401217D+00 0.1612778D+00 0.4173511D+04 0.6274579D+03
EXPONENTS  0.1429021D+03 0.4023433D+02 0.1282021D+02 0.4390437D+01 0.1162636D+02
EXPONENTS  0.2716280D+01 0.7722184D+00 0.1162636D+02 0.2716280D+01 0.7722184D+00
EXPONENTS  0.1162636D+02 0.2716280D+01 0.7722184D+00 0.1162636D+02 0.2716280D+01
EXPONENTS  0.7722184D+00 0.2120315D+00 0.2120315D+00 0.2120315D+00 0.2120315D+00
EXPONENTS  0.8000000D+00 0.8000000D+00 0.8000000D+00 0.8000000D+00 0.8000000D+00
EXPONENTS  0.8000000D+00 0.1873114D+02 0.2825394D+01 0.6401217D+00 0.1612778D+00
EXPONENTS  0.4173511D+04 0.6274579D+03 0.1429021D+03 0.4023433D+02 0.1282021D+02
EXPONENTS  0.4390437D+01 0.1162636D+02 0.2716280D+01 0.7722184D+00 0.1162636D+02
EXPONENTS  0.2716280D+01 0.7722184D+00 0.1162636D+02 0.2716280D+01 0.7722184D+00
EXPONENTS  0.1162636D+02 0.2716280D+01 0.7722184D+00 0.2120315D+00 0.2120315D+00
EXPONENTS  0.2120315D+00 0.2120315D+00 0.8000000D+00 0.8000000D+00 0.8000000D+00
EXPONENTS  0.8000000D+00 0.8000000D+00 0.8000000D+00 0.1873114D+02 0.2825394D+01
EXPONENTS  0.6401217D+00 0.1612778D+00
MO    1     MO 0.0        OCC NO =    2.0000000  ORB. ENERGY =  -14.315054
 -0.10584945D-05 -0.19497293D-05 -0.31347639D-05 -0.40455031D-05 -0.34337665D-05
 -0.11834869D-05  0.58483932D-05  0.20849576D-05 -0.73435989D-05 -0.21875938D-05
 -0.16099807D-05 -0.87025081D-06  0.14003166D-04  0.10305764D-04  0.55706258D-05
 -0.84141453D-09 -0.61924709D-09 -0.33472469D-09 -0.19397764D-04  0.13806533D-05
  0.14010467D-04 -0.47690568D-08  0.36669690D-05 -0.12441824D-05 -0.24893797D-05
 -0.39216890D-05  0.36509105D-08  0.49385407D-08 -0.16026877D-06 -0.27184617D-06
 -0.30948725D-06 -0.84037544D-05  0.10785502D-05  0.19866715D-05  0.31941595D-05
  0.41221548D-05  0.34988274D-05  0.12059109D-05 -0.59437730D-05 -0.21189606D-05
  0.74633636D-05 -0.21158681D-05 -0.15571934D-05 -0.84171746D-06 -0.14398587D-04
 -0.10596778D-04 -0.57279290D-05  0.83940693D-09  0.61776958D-09  0.33392604D-09
  0.19545415D-04  0.14055029D-05 -0.14243482D-04  0.47836974D-08 -0.35379759D-05
  0.13014856D-05  0.24973927D-05 -0.38398193D-05  0.37480251D-08 -0.50256659D-08
  0.16745206D-06  0.28403039D-06  0.32335856D-06  0.86059478D-05  0.12217472D-05
  0.22504381D-05  0.36182419D-05  0.46694454D-05  0.39633600D-05  0.13660174D-05
 -0.33452644D-04 -0.11925899D-04  0.42005179D-04 -0.20316688D-03 -0.14952261D-03
 -0.80822198D-04 -0.96541066D-04 -0.71050324D-04 -0.38405182D-04  0.22351874D-07
  0.16450076D-07  0.88918411D-08 -0.49594318D-04  0.15677330D-04  0.11184530D-04
 -0.48202335D-08  0.10233626D-03  0.24138358D-04 -0.27556100D-04  0.14275504D-03
 -0.17985531D-07 -0.10967442D-07  0.19612295D-05  0.33266165D-05  0.37872353D-05
  0.47144937D-05  0.47207599D-07  0.86955615D-07  0.13980676D-06  0.18042465D-06
  0.15314192D-06  0.52782115D-07 -0.79946187D-06 -0.28500890D-06  0.10038531D-05
  0.36395014D-03  0.26785259D-03  0.14478369D-03 -0.22349702D-05 -0.16448478D-05
 -0.88909769D-06 -0.92777917D-09 -0.68280798D-09 -0.36908157D-09 -0.11028443D-05
 -0.74507136D-04  0.27465724D-06 -0.32617547D-10  0.25229275D-05  0.84195534D-06
 -0.55899057D-06 -0.25070780D-03 -0.55466388D-07  0.69401628D-09 -0.11690772D-05
 -0.21534207D-05 -0.34622580D-05 -0.44681436D-05 -0.37924979D-05 -0.13071278D-05
  0.32647220D-04  0.11638764D-04 -0.40993840D-04 -0.19857378D-03 -0.14614228D-03
 -0.78995007D-04  0.94501303D-04  0.69549141D-04  0.37593741D-04 -0.22006478D-07
 -0.16195879D-07 -0.87544384D-08  0.48297530D-04  0.15341783D-04 -0.10780444D-04
  0.47516847D-08 -0.99869054D-04 -0.23403969D-04  0.26945075D-04  0.13941694D-03
 -0.17864908D-07  0.10972329D-07 -0.19124948D-05 -0.32439531D-05 -0.36931259D-05
 -0.44721149D-05  0.28702422D-03  0.52857908D-03  0.85403978D-03  0.11177545D-02
  0.95745689D-03  0.32937626D-03  0.11604285D-04  0.57365882D-05 -0.15132752D-04
 -0.42153653D-05 -0.32817292D-05 -0.15582811D-05 -0.18890059D-07 -0.14706213D-07
 -0.69830300D-08  0.28339732D-08  0.22062934D-08  0.10476261D-08  0.18043938D-04
  0.12313054D-04 -0.67235392D-05 -0.39932641D-08  0.10741493D-04  0.22546690D-04
 -0.20991891D-04 -0.30444523D-04 -0.27821397D-09  0.20094838D-07 -0.11060485D-05
 -0.18760676D-05 -0.21358366D-05  0.78805696D-05 -0.61560497D-06 -0.11336880D-05
 -0.18317309D-05 -0.23973420D-05 -0.20535383D-05 -0.70644097D-06 -0.47314213D-06
 -0.23389821D-06  0.61700849D-06  0.27904442D-04  0.21724054D-04  0.10315349D-04
 -0.25289529D-06 -0.19688302D-06 -0.93487024D-07 -0.23790282D-09 -0.18521115D-09
 -0.87944804D-10 -0.53755015D-06 -0.18570173D-04  0.30225979D-06  0.97105440D-10
 -0.21199951D-06 -0.59214881D-06  0.58231793D-06  0.48314897D-04  0.16529850D-07
 -0.59935725D-10 -0.29295299D-03 -0.53949741D-03 -0.87168083D-03 -0.11408428D-02
 -0.97723412D-03 -0.33617986D-03 -0.12040981D-04 -0.59524692D-05  0.15702232D-04
 -0.45490763D-05 -0.35415286D-05 -0.16816430D-05 -0.16558327D-06 -0.12890922D-06
 -0.61210658D-07 -0.28999133D-08 -0.22576288D-08 -0.10720020D-08 -0.18767147D-04
  0.12799909D-04  0.71316980D-05  0.41300368D-08 -0.10844240D-04 -0.23092159D-04
  0.21757730D-04 -0.31061909D-04 -0.44345939D-09 -0.20763877D-07  0.10921662D-05
  0.18525206D-05  0.21090292D-05 -0.81522290D-05  0.48182173D+00  0.88731498D+00
  0.14336593D+01  0.18763518D+01  0.16072635D+01  0.55291725D+00 -0.12832143D-01
 -0.63435807D-02  0.16733959D-01 -0.20187632D-04 -0.15716394D-04 -0.74626997D-05
 -0.64647156D-03 -0.50328844D-03 -0.23897915D-03 -0.49784963D-06 -0.38758389D-06
 -0.18403854D-06  0.76527138D-03 -0.19804272D-04  0.26934215D-04  0.20535566D-07
 -0.68940255D-02 -0.67636444D-02 -0.67926087D-02 -0.12761651D-04  0.27815623D-07
  0.56516036D-07  0.40072638D-04  0.67970779D-04  0.77382329D-04 -0.52680023D-04
 -0.47122393D+00 -0.86779825D+00 -0.14021255D+01 -0.18350809D+01 -0.15719113D+01
 -0.54075569D+00  0.12548894D-01  0.62035564D-02 -0.16364584D-01 -0.19073619D-04
 -0.14849117D-04 -0.70508859D-05  0.63203414D-03  0.49204867D-03  0.23364211D-03
  0.48494230D-06  0.37753533D-06  0.17926713D-06 -0.74992005D-03 -0.20054050D-04
 -0.26594720D-04 -0.19889349D-07  0.67411920D-02  0.66148737D-02  0.66444983D-02
 -0.12780770D-04  0.27186560D-07 -0.55783147D-07 -0.39095670D-04 -0.66313655D-04
 -0.75495753D-04  0.51709754D-04
MO    2     MO 0.0        OCC NO =    2.0000000  ORB. ENERGY =  -14.315051
  0.91479925D-06  0.16850450D-05  0.27092061D-05  0.34963085D-05  0.29676178D-05
  0.10228234D-05 -0.43556094D-05 -0.15527788D-05  0.54691687D-05 -0.32038662D-05
 -0.23579160D-05 -0.12745360D-05 -0.17946486D-04 -0.13207888D-04 -0.71393252D-05
  0.80518153D-09  0.59258107D-09  0.32031077D-09  0.68505190D-05 -0.11350588D-05
 -0.10632033D-04  0.25674354D-08  0.57620557D-05  0.26007170D-05  0.39201014D-06
 -0.36397949D-05 -0.75108721D-08 -0.46654542D-08  0.32433479D-06  0.55013320D-06
  0.62630720D-06  0.91848863D-05  0.89106393D-06  0.16413250D-05  0.26389132D-05
  0.34055935D-05  0.28906202D-05  0.99628532D-06 -0.42246224D-05 -0.15060818D-05
  0.53046934D-05  0.32514163D-05  0.23929110D-05  0.12934520D-05 -0.17630836D-04
 -0.12975583D-04 -0.70137560D-05  0.69843342D-09  0.51401878D-09  0.27784511D-09
  0.64174830D-05  0.11039890D-05 -0.10317721D-04  0.24471414D-08  0.58421402D-05
  0.25723834D-05  0.33662049D-06  0.37262904D-05  0.74623076D-08 -0.45510262D-08
  0.32068859D-06  0.54394854D-06  0.61926619D-06  0.89956144D-05  0.23555798D-05
  0.43389389D-05  0.69761221D-05  0.90028864D-05  0.76415242D-05  0.26337387D-05
 -0.35856448D-04 -0.12782857D-04  0.45023542D-04 -0.20429299D-03 -0.15035138D-03
 -0.81270176D-04 -0.90661876D-04 -0.66723477D-04 -0.36066371D-04  0.22086481D-07
  0.16254757D-07  0.87862644D-08 -0.57750084D-04  0.14915524D-04  0.18031670D-04
 -0.34324721D-08  0.10979968D-03  0.32754942D-04 -0.27172043D-04  0.14851909D-03
 -0.16081044D-07 -0.66238195D-08  0.21676054D-05  0.36766691D-05  0.41857578D-05
  0.10836293D-04  0.42322058D-05  0.77956528D-05  0.12533808D-04  0.16175240D-04
  0.13729317D-04  0.47319663D-05 -0.71823246D-04 -0.25605054D-04  0.90185645D-04
 -0.40459712D-05 -0.29776713D-05 -0.16095354D-05 -0.20095131D-03 -0.14789205D-03
 -0.79940818D-04 -0.47291274D-07 -0.34804467D-07 -0.18813030D-07 -0.99168170D-04
  0.82875682D-06  0.24738481D-04 -0.97803865D-08  0.22695960D-03  0.75749670D-04
 -0.50251766D-04  0.27884540D-05 -0.68435368D-10  0.33470188D-07  0.23821670D-05
  0.43879121D-05  0.70548609D-05  0.91045011D-05  0.77277733D-05  0.26634655D-05
 -0.36591596D-04 -0.13044938D-04  0.45946638D-04  0.20876007D-03  0.15363898D-03
  0.83047235D-04 -0.92786448D-04 -0.68287077D-04 -0.36911551D-04  0.22784622D-07
  0.16768561D-07  0.90639932D-08 -0.58838089D-04 -0.15260337D-04  0.18275683D-04
 -0.35736996D-08  0.11204773D-03  0.33283762D-04 -0.27778131D-04 -0.15165681D-03
  0.16765843D-07 -0.71077117D-08  0.22106403D-05  0.37496643D-05  0.42688603D-05
  0.10938319D-04 -0.26909055D-03 -0.49555273D-03 -0.80067820D-03 -0.10479156D-02
 -0.89763367D-03 -0.30879638D-03 -0.19781490D-04 -0.97789960D-05  0.25796365D-04
  0.15066487D-04  0.11729500D-04  0.55695817D-05 -0.82966844D-05 -0.64591013D-05
 -0.30670098D-05  0.41427523D-11  0.32251988D-11  0.15314385D-11 -0.32708167D-04
 -0.22034743D-04  0.18422204D-04  0.38588584D-08 -0.47511128D-05 -0.24784759D-04
  0.34663118D-04  0.28086701D-04  0.45258754D-08 -0.22922717D-07 -0.61372132D-06
 -0.10409875D-05 -0.11851275D-05 -0.12302714D-04 -0.55359910D-04 -0.10194990D-03
 -0.16472326D-03 -0.21558734D-03 -0.18466988D-03 -0.63528578D-04 -0.42567433D-04
 -0.21043246D-04  0.55510735D-04 -0.30997136D-06 -0.24131766D-06 -0.11458616D-06
 -0.22768477D-04 -0.17725623D-04 -0.84167528D-05 -0.22493009D-07 -0.17511167D-07
 -0.83149215D-08 -0.48390957D-04  0.20623322D-06  0.27204109D-04  0.10128107D-07
 -0.19057742D-04 -0.53237332D-04  0.52390750D-04 -0.53712213D-06 -0.67292428D-10
  0.38969688D-09 -0.26265493D-03 -0.48370099D-03 -0.78152903D-03 -0.10228535D-02
 -0.87616569D-03 -0.30141115D-03 -0.19518210D-04 -0.96488437D-05  0.25453031D-04
 -0.14968778D-04 -0.11653433D-04 -0.55334620D-05 -0.82950874D-05 -0.64578580D-05
 -0.30664194D-05 -0.23222411D-10 -0.18079018D-10 -0.85845573D-11 -0.32298757D-04
  0.21755386D-04  0.18268258D-04  0.38381867D-08 -0.45109595D-05 -0.24277173D-04
  0.34187859D-04 -0.27403191D-04 -0.45020708D-08 -0.22671423D-07 -0.63814120D-06
 -0.10824083D-05 -0.12322835D-05 -0.12124470D-04  0.47123246D+00  0.86781394D+00
  0.14021509D+01  0.18351141D+01  0.15719397D+01  0.54076547D+00 -0.12595125D-01
 -0.62264106D-02  0.16424872D-01 -0.49553396D-04 -0.38578110D-04 -0.18318251D-04
 -0.64208082D-03 -0.49987017D-03 -0.23735604D-03 -0.49657575D-06 -0.38659215D-06
 -0.18356763D-06  0.68182843D-03  0.11408462D-04  0.14963570D-04  0.25897528D-07
 -0.67962643D-02 -0.66150593D-02 -0.65849897D-02  0.99025797D-06  0.29705223D-07
  0.29583174D-07  0.43492076D-04  0.73770793D-04  0.83985441D-04 -0.43048635D-04
  0.48183007D+00  0.88733033D+00  0.14336841D+01  0.18763842D+01  0.16072913D+01
  0.55292682D+00 -0.12877353D-01 -0.63659304D-02  0.16792917D-01  0.49982455D-04
  0.38912139D-04  0.18476860D-04 -0.65629757D-03 -0.51093814D-03 -0.24261150D-03
 -0.50565777D-06 -0.39366265D-06 -0.18692495D-06  0.69867678D-03 -0.10964068D-04
  0.15559051D-04  0.26298189D-07 -0.69478825D-02 -0.67638228D-02 -0.67344050D-02
 -0.70559487D-06 -0.29852761D-07  0.30909580D-07  0.44372315D-04  0.75263844D-04
  0.85685226D-04 -0.44209267D-04
MO    3     MO 0.0        OCC NO =    2.0000000  ORB. ENERGY =  -14.313192
 -0.10412881D-05 -0.19180355D-05 -0.30838069D-05 -0.39797416D-05 -0.33779491D-05
 -0.11642488D-05  0.90317000D-05  0.32198094D-05 -0.11340753D-04  0.22657628D-04
  0.16675099D-04  0.90134736D-05  0.21446613D-04  0.15783840D-04  0.85317172D-05
 -0.20656352D-07 -0.15202241D-07 -0.82173423D-08  0.31732050D-05 -0.11506188D-04
 -0.33198282D-05  0.59783612D-08 -0.12914925D-04 -0.20556856D-05  0.15711447D-05
 -0.28663780D-04  0.89275101D-08  0.60425267D-08  0.12938824D-05  0.21946695D-05
  0.24985536D-05 -0.33596705D-05  0.21209155D-05  0.39066912D-05  0.62811566D-05
  0.81060134D-05  0.68802709D-05  0.23713641D-05 -0.49237028D-04 -0.17553046D-04
  0.61825014D-04  0.25696548D-03  0.18911621D-03  0.10222392D-03 -0.18242387D-03
 -0.13425660D-03 -0.72570383D-04  0.92554902D-07  0.68116668D-07  0.36819439D-07
 -0.80718928D-04 -0.36581603D-04  0.16445231D-04 -0.21575149D-07  0.14870654D-03
  0.29177599D-04 -0.37694825D-04 -0.19273796D-03  0.10328953D-06 -0.44551698D-07
  0.24406522D-05  0.41398080D-05  0.47130251D-05  0.61670792D-05  0.21632115D-05
  0.39845998D-05  0.64064176D-05  0.82676663D-05  0.70174796D-05  0.24186546D-05
 -0.50743786D-04 -0.18090207D-04  0.63716990D-04 -0.30359768D-04 -0.22343562D-04
 -0.12077476D-04  0.30785213D-03  0.22656673D-03  0.12246723D-03  0.82353689D-07
  0.60608988D-07  0.32761276D-07 -0.77429091D-04 -0.39378457D-05 -0.30916770D-04
 -0.18432602D-07 -0.21502308D-04  0.20337338D-03 -0.37289298D-04  0.66043577D-05
  0.12194167D-07  0.99006231D-07  0.31091868D-05  0.52737693D-05  0.60040000D-05
  0.75808273D-05  0.21143377D-05  0.38945750D-05  0.62616762D-05  0.80808734D-05
  0.68589324D-05  0.23640095D-05 -0.10415208D-04 -0.37130314D-05  0.13077970D-04
  0.17694319D-04  0.13022304D-04  0.70390103D-05  0.98086015D-05  0.72187344D-05
  0.39019782D-05  0.40679930D-09  0.29938785D-09  0.16182959D-09  0.17529803D-04
  0.87816366D-05  0.21376121D-05 -0.44227483D-08  0.29365956D-05  0.29336047D-05
  0.31184063D-05  0.74681097D-06 -0.44068808D-08 -0.27883969D-08 -0.13432644D-06
 -0.24742707D-06 -0.39781188D-06 -0.51338768D-06 -0.43575629D-06 -0.15018839D-06
  0.53014003D-05  0.18899541D-05 -0.66567613D-05 -0.19689620D-05 -0.14490765D-05
 -0.78327648D-06 -0.31458720D-04 -0.23152347D-04 -0.12514653D-04 -0.97420261D-08
 -0.71697375D-08 -0.38754937D-08  0.79869586D-05 -0.11267081D-06  0.42967904D-05
  0.24861725D-08  0.27900224D-05 -0.23154814D-04  0.52098478D-05  0.42754495D-05
  0.29380750D-09 -0.72435609D-08 -0.31572702D-06 -0.53553278D-06 -0.60968514D-06
 -0.15414105D-06 -0.73895684D-01 -0.13608508D+00 -0.21987641D+00 -0.28777095D+00
 -0.24650161D+00 -0.84799410D-01  0.19675074D-02  0.97263896D-03 -0.25657592D-02
  0.92154663D-04  0.71743877D-04  0.34066530D-04 -0.43586406D-04 -0.33932713D-04
 -0.16112453D-04  0.10205568D-06  0.79451975D-07  0.37726608D-07 -0.12276319D-03
 -0.69345441D-05 -0.83727964D-06 -0.66208859D-08  0.10468389D-02  0.10586139D-02
  0.10435000D-02  0.20834400D-04 -0.10887503D-07  0.68202227D-08 -0.62489827D-05
 -0.10599457D-04 -0.12067108D-04  0.54386327D-05 -0.51112610D-04 -0.94128142D-04
 -0.15208543D-03 -0.19904714D-03 -0.17050171D-03 -0.58654565D-04 -0.22529838D-04
 -0.11137644D-04  0.29380392D-04  0.28290919D-04  0.22024932D-04  0.10458217D-04
 -0.11886725D-04 -0.92540056D-05 -0.43941292D-05 -0.90684397D-08 -0.70599251D-08
 -0.33523022D-08 -0.17990870D-04 -0.27521695D-04  0.94366866D-05  0.70322060D-08
 -0.43792068D-04 -0.81280785D-05  0.26575997D-04 -0.10795570D-05 -0.45098941D-08
  0.24941025D-07  0.66989117D+00  0.12336606D+01  0.19932594D+01  0.26087480D+01
  0.22346265D+01  0.76873740D+00 -0.17872843D-01 -0.88354552D-02  0.23307365D-01
  0.78053320D-03  0.60765756D-03  0.28853730D-03  0.40489533D-03  0.31521748D-03
  0.14967641D-03 -0.86163903D-06 -0.67079974D-06 -0.31851944D-06  0.10030874D-02
 -0.24923842D-04 -0.58861232D-05  0.42325543D-07 -0.94495860D-02 -0.95597100D-02
 -0.93986684D-02  0.18699732D-03 -0.95112264D-07 -0.48306988D-07  0.58687793D-04
  0.99545605D-04  0.11332915D-03 -0.66860082D-04  0.40079124D-03  0.73809056D-03
  0.11925533D-02  0.15607959D-02  0.13369615D-02  0.45993026D-03 -0.40623887D-04
 -0.20082453D-04  0.52976223D-04 -0.21474010D-05 -0.16717859D-05 -0.79382310D-06
  0.11987905D-04  0.93327754D-05  0.44315319D-05 -0.64142386D-08 -0.49935872D-08
 -0.23711318D-08 -0.24381510D-04 -0.31567130D-05 -0.26250163D-04  0.39320698D-08
 -0.24735872D-04 -0.48799950D-04  0.24962261D-04 -0.40435431D-04  0.17705382D-07
 -0.15111283D-07  0.77606454D-06  0.13163523D-05  0.14986206D-05 -0.15015916D-04
 -0.57941867D-04 -0.10670479D-03 -0.17240587D-03 -0.22564222D-03 -0.19328278D-03
 -0.66491517D-04  0.13951154D-05  0.68967648D-06 -0.18193224D-05  0.65565596D-05
  0.51043864D-05  0.24237432D-05  0.20593137D-05  0.16032086D-05  0.76126016D-06
 -0.53723925D-08 -0.41824934D-08 -0.19859958D-08 -0.18672644D-05 -0.53221221D-05
  0.12655122D-05  0.28600595D-08  0.62051440D-05  0.10535857D-04  0.54728054D-05
 -0.97374416D-05  0.31200219D-08  0.33660450D-08 -0.25775287D-06 -0.43719765D-06
 -0.49773408D-06  0.29870230D-05
MO    4     MO 0.0        OCC NO =    2.0000000  ORB. ENERGY =  -14.313192
  0.19406206D-05  0.35745910D-05  0.57472077D-05  0.74169370D-05  0.62953925D-05
  0.21697791D-05 -0.48432972D-04 -0.17266399D-04  0.60815391D-04 -0.25823592D-03
 -0.19005120D-03 -0.10272931D-03 -0.18212864D-03 -0.13403932D-03 -0.72452937D-04
  0.90667461D-07  0.66727588D-07  0.36068593D-07 -0.81998893D-04  0.34913058D-04
  0.16108891D-04 -0.20869271D-07  0.14948577D-03  0.29437556D-04 -0.38272601D-04
  0.19108471D-03 -0.10430338D-06 -0.44538712D-07  0.27897627D-05  0.47319655D-05
  0.53871755D-05  0.55687126D-05 -0.59324922D-06 -0.10927552D-05 -0.17569258D-05
 -0.22673634D-05 -0.19245064D-05 -0.66330313D-06 -0.17424768D-05 -0.62119461D-06
  0.21879601D-05  0.34175327D-04  0.25151660D-04  0.13595351D-04 -0.18768010D-04
 -0.13812497D-04 -0.74661372D-05 -0.53649829D-09 -0.39484106D-09 -0.21342539D-09
 -0.14776575D-04  0.36194625D-05  0.27129695D-06  0.13436933D-08  0.19979396D-04
  0.44103115D-05 -0.68089716D-05 -0.13676467D-04  0.14004058D-07 -0.37362056D-08
  0.18708614D-05  0.31733350D-05  0.36127297D-05 -0.20650720D-05  0.34549146D-06
  0.63638954D-06  0.10231836D-05  0.13204479D-05  0.11207777D-05  0.38628887D-06
 -0.59011678D-05 -0.21037718D-05  0.74098660D-05 -0.47630499D-05 -0.35054122D-05
 -0.18947978D-05  0.36522608D-04  0.26879164D-04  0.14529127D-04  0.83637739D-08
  0.61553996D-08  0.33272086D-08 -0.91094077D-05 -0.76409036D-06 -0.25023518D-05
 -0.15687119D-08 -0.19436046D-05  0.21696562D-04 -0.29900992D-05 -0.29056533D-05
  0.24319523D-08  0.14599826D-07  0.37090481D-06  0.62912476D-06  0.71623630D-06
  0.15352214D-05  0.26386700D-05  0.48603864D-05  0.78145024D-05  0.10084840D-04
  0.85598716D-05  0.29502577D-05 -0.12997785D-04 -0.46337223D-05  0.16320810D-04
 -0.14178478D-04 -0.10434787D-04 -0.56403669D-05  0.12240814D-04  0.90087441D-05
  0.48695410D-05  0.48744075D-09  0.35873670D-09  0.19390972D-09  0.21876907D-04
 -0.70368401D-05  0.26677526D-05 -0.55363982D-08  0.36654137D-05  0.36613809D-05
  0.38918253D-05 -0.59872932D-06  0.34844349D-08 -0.34350247D-08  0.21865363D-05
  0.40275636D-05  0.64754945D-05  0.83568121D-05  0.70931454D-05  0.24447337D-05
 -0.50810088D-04 -0.18113844D-04  0.63800243D-04  0.30667499D-04  0.22570040D-04
  0.12199895D-04  0.30841092D-03  0.22697797D-03  0.12268953D-03  0.81610808D-07
  0.60062257D-07  0.32465749D-07 -0.77552941D-04  0.40097646D-05 -0.30718896D-04
 -0.18348271D-07 -0.21409033D-04  0.20321237D-03 -0.37044448D-04 -0.58129324D-05
 -0.12501473D-07  0.98860510D-07  0.31152632D-05  0.52840760D-05  0.60157338D-05
  0.77331641D-05  0.66989150D+00  0.12336612D+01  0.19932604D+01  0.26087493D+01
  0.22346276D+01  0.76873778D+00 -0.17873756D-01 -0.88359063D-02  0.23308555D-01
 -0.77918178D-03 -0.60660546D-03 -0.28803773D-03  0.40513508D-03  0.31540413D-03
  0.14976504D-03 -0.86790657D-06 -0.67567912D-06 -0.32083635D-06  0.10003828D-02
  0.23988992D-04 -0.62180656D-05  0.42206457D-07 -0.94485958D-02 -0.95588033D-02
 -0.93971696D-02 -0.18695077D-03  0.95909599D-07 -0.47594354D-07  0.58738026D-04
  0.99630810D-04  0.11342616D-03 -0.67292742D-04 -0.63788484D-04 -0.11747182D-03
 -0.18980246D-03 -0.24841062D-03 -0.21278596D-03 -0.73200836D-04 -0.28116864D-04
 -0.13899596D-04  0.36666242D-04 -0.22669187D-04 -0.17648324D-04 -0.83800485D-05
 -0.14834400D-04 -0.11548817D-04 -0.54837868D-05 -0.11468039D-07 -0.89280519D-08
 -0.42393548D-08 -0.22452460D-04  0.22053079D-04  0.11776857D-04  0.88795331D-08
 -0.54651930D-04 -0.10143765D-04  0.33166314D-04  0.86486488D-06  0.34846442D-08
  0.31388286D-07  0.73898679D-01  0.13609059D+00  0.21988532D+00  0.28778261D+00
  0.24651160D+00  0.84802847D-01 -0.19757783D-02 -0.97672767D-03  0.25765450D-02
  0.79900919D-04  0.62204142D-04  0.29536727D-04  0.45769840D-04  0.35632551D-04
  0.16919596D-04 -0.88646368D-07 -0.69012613D-07 -0.32769630D-07  0.98243968D-04
  0.15388522D-05 -0.21725204D-05  0.26637608D-08 -0.10378610D-02 -0.10503912D-02
 -0.10299101D-02  0.20416656D-04 -0.10154450D-07 -0.37773436D-08  0.67045192D-05
  0.11372134D-04  0.12946772D-04 -0.93600530D-05  0.30143535D-04  0.55511839D-04
  0.89692008D-04  0.11738756D-03  0.10055296D-03  0.34591384D-04 -0.76435020D-05
 -0.37785717D-05  0.99676299D-05 -0.71975013D-05 -0.56033697D-05 -0.26606781D-05
  0.47873362D-05  0.37270176D-05  0.17697198D-05 -0.69481024D-08 -0.54092087D-08
 -0.25684836D-08 -0.73585725D-05  0.47482593D-05 -0.45660691D-05  0.38347197D-08
  0.83320341D-06 -0.10374791D-06  0.11182774D-04  0.94670218D-06  0.74384670D-09
  0.11548050D-09 -0.90759322D-07 -0.15394499D-06 -0.17526093D-06 -0.29307139D-06
  0.39770382D-03  0.73240482D-03  0.11833667D-02  0.15487726D-02  0.13266625D-02
  0.45638727D-03 -0.41312644D-04 -0.20422941D-04  0.53874408D-04  0.36645872D-05
  0.28529397D-05  0.13546767D-05  0.12743723D-04  0.99211919D-05  0.47109328D-05
 -0.79758792D-08 -0.62093493D-08 -0.29484187D-08 -0.25399570D-04  0.20457203D-05
 -0.26614386D-04  0.48257333D-08 -0.23959111D-04 -0.47648313D-04  0.26800109D-04
  0.39256446D-04 -0.17558763D-07 -0.14382596D-07  0.73756168D-06  0.12510442D-05
  0.14242696D-05 -0.14718787D-04
MO    5     MO 0.0        OCC NO =    2.0000000  ORB. ENERGY =  -14.301599
  0.31344515D-06  0.57736077D-06  0.92827746D-06  0.11979688D-05  0.10168192D-05
  0.35045836D-06 -0.44841264D-04 -0.15985952D-04  0.56305424D-04  0.25252758D-03
  0.18585009D-03  0.10045847D-03 -0.17345177D-03 -0.12765349D-03 -0.69001172D-04
  0.41901449D-07  0.30837773D-07  0.16668894D-07 -0.56656345D-04 -0.24613244D-04