 Generated by Multiwfn
GAUSSIAN            107 MOL ORBITALS    488 PRIMITIVES       26 NUCLEI
  C    1    (CENTRE  1)   6.63326567 -0.00000011  0.00069716  CHARGE =  6.0
  C    2    (CENTRE  2)   5.33354140 -2.27863867  0.00058096  CHARGE =  6.0
  C    3    (CENTRE  3)   2.69065278 -2.32713581  0.00029680  CHARGE =  6.0
  C    4    (CENTRE  4)   1.34325296 -0.00000009  0.00013245  CHARGE =  6.0
  C    5    (CENTRE  5)   2.69065303  2.32713764  0.00024718  CHARGE =  6.0
  C    6    (CENTRE  6)   5.33353685  2.27864077  0.00053014  CHARGE =  6.0
  C    7    (CENTRE  7)   1.28047867 -4.63917879  0.00016885  CHARGE =  6.0
  C    8    (CENTRE  8)  -1.34325290 -0.00000006 -0.00014307  CHARGE =  6.0
  C    9    (CENTRE  9)  -2.69064987 -2.32713639 -0.00025948  CHARGE =  6.0
  C   10    (CENTRE 10)  -1.28047453 -4.63917937 -0.00009700  CHARGE =  6.0
  C   11    (CENTRE 11)  -5.33353913 -2.27864069 -0.00052546  CHARGE =  6.0
  H   12    (CENTRE 12)  -6.36353807 -4.04626132 -0.00061102  CHARGE =  1.0
  C   13    (CENTRE 13)  -6.63326612 -0.00000444 -0.00067391  CHARGE =  6.0
  C   14    (CENTRE 14)  -5.33353909  2.27863837 -0.00056276  CHARGE =  6.0
  C   15    (CENTRE 15)  -2.69065575  2.32713679 -0.00029769  CHARGE =  6.0
  C   16    (CENTRE 16)  -1.28047701  4.63918073 -0.00017820  CHARGE =  6.0
  C   17    (CENTRE 17)   1.28047359  4.63918111  0.00007857  CHARGE =  6.0
  H   18    (CENTRE 18)   2.31304440  6.40568523  0.00015118  CHARGE =  1.0
  H   19    (CENTRE 19)  -2.31305100  6.40568353 -0.00029340  CHARGE =  1.0
  H   20    (CENTRE 20)   2.31304678 -6.40568455  0.00028824  CHARGE =  1.0
  H   21    (CENTRE 21)   8.67778290  0.00000282  0.00091795  CHARGE =  1.0
  H   22    (CENTRE 22)   6.36354175 -4.04625811  0.00071502  CHARGE =  1.0
  H   23    (CENTRE 23)   6.36354636  4.04625489  0.00061838  CHARGE =  1.0
  H   24    (CENTRE 24)  -2.31304807 -6.40568196 -0.00019343  CHARGE =  1.0
  H   25    (CENTRE 25)  -8.67778324 -0.00000119 -0.00088010  CHARGE =  1.0
  H   26    (CENTRE 26)  -6.36354534  4.04625470 -0.00068011  CHARGE =  1.0
CENTRE ASSIGNMENTS    1  1  1  1  1  1  1  1  1  1  1  1  1  1  1  1  1  1  1  1
CENTRE ASSIGNMENTS    1  1  1  1  1  1  1  1  2  2  2  2  2  2  2  2  2  2  2  2
CENTRE ASSIGNMENTS    2  2  2  2  2  2  2  2  2  2  2  2  2  2  2  2  3  3  3  3
CENTRE ASSIGNMENTS    3  3  3  3  3  3  3  3  3  3  3  3  3  3  3  3  3  3  3  3
CENTRE ASSIGNMENTS    3  3  3  3  4  4  4  4  4  4  4  4  4  4  4  4  4  4  4  4
CENTRE ASSIGNMENTS    4  4  4  4  4  4  4  4  4  4  4  4  5  5  5  5  5  5  5  5
CENTRE ASSIGNMENTS    5  5  5  5  5  5  5  5  5  5  5  5  5  5  5  5  5  5  5  5
CENTRE ASSIGNMENTS    6  6  6  6  6  6  6  6  6  6  6  6  6  6  6  6  6  6  6  6
CENTRE ASSIGNMENTS    6  6  6  6  6  6  6  6  7  7  7  7  7  7  7  7  7  7  7  7
CENTRE ASSIGNMENTS    7  7  7  7  7  7  7  7  7  7  7  7  7  7  7  7  8  8  8  8
CENTRE ASSIGNMENTS    8  8  8  8  8  8  8  8  8  8  8  8  8  8  8  8  8  8  8  8
CENTRE ASSIGNMENTS    8  8  8  8  9  9  9  9  9  9  9  9  9  9  9  9  9  9  9  9
CENTRE ASSIGNMENTS    9  9  9  9  9  9  9  9  9  9  9  9 10 10 10 10 10 10 10 10
CENTRE ASSIGNMENTS   10 10 10 10 10 10 10 10 10 10 10 10 10 10 10 10 10 10 10 10
CENTRE ASSIGNMENTS   11 11 11 11 11 11 11 11 11 11 11 11 11 11 11 11 11 11 11 11
CENTRE ASSIGNMENTS   11 11 11 11 11 11 11 11 12 12 12 12 13 13 13 13 13 13 13 13
CENTRE ASSIGNMENTS   13 13 13 13 13 13 13 13 13 13 13 13 13 13 13 13 13 13 13 13
CENTRE ASSIGNMENTS   14 14 14 14 14 14 14 14 14 14 14 14 14 14 14 14 14 14 14 14
CENTRE ASSIGNMENTS   14 14 14 14 14 14 14 14 15 15 15 15 15 15 15 15 15 15 15 15
CENTRE ASSIGNMENTS   15 15 15 15 15 15 15 15 15 15 15 15 15 15 15 15 16 16 16 16
CENTRE ASSIGNMENTS   16 16 16 16 16 16 16 16 16 16 16 16 16 16 16 16 16 16 16 16
CENTRE ASSIGNMENTS   16 16 16 16 17 17 17 17 17 17 17 17 17 17 17 17 17 17 17 17
CENTRE ASSIGNMENTS   17 17 17 17 17 17 17 17 17 17 17 17 18 18 18 18 19 19 19 19
CENTRE ASSIGNMENTS   20 20 20 20 21 21 21 21 22 22 22 22 23 23 23 23 24 24 24 24
CENTRE ASSIGNMENTS   25 25 25 25 26 26 26 26
TYPE ASSIGNMENTS      1  1  1  1  1  1  1  1  1  2  2  2  3  3  3  4  4  4  1  2
TYPE ASSIGNMENTS      3  4  5  6  7  8  9 10  1  1  1  1  1  1  1  1  1  2  2  2
TYPE ASSIGNMENTS      3  3  3  4  4  4  1  2  3  4  5  6  7  8  9 10  1  1  1  1
TYPE ASSIGNMENTS      1  1  1  1  1  2  2  2  3  3  3  4  4  4  1  2  3  4  5  6
TYPE ASSIGNMENTS      7  8  9 10  1  1  1  1  1  1  1  1  1  2  2  2  3  3  3  4
TYPE ASSIGNMENTS      4  4  1  2  3  4  5  6  7  8  9 10  1  1  1  1  1  1  1  1
TYPE ASSIGNMENTS      1  2  2  2  3  3  3  4  4  4  1  2  3  4  5  6  7  8  9 10
TYPE ASSIGNMENTS      1  1  1  1  1  1  1  1  1  2  2  2  3  3  3  4  4  4  1  2
TYPE ASSIGNMENTS      3  4  5  6  7  8  9 10  1  1  1  1  1  1  1  1  1  2  2  2
TYPE ASSIGNMENTS      3  3  3  4  4  4  1  2  3  4  5  6  7  8  9 10  1  1  1  1
TYPE ASSIGNMENTS      1  1  1  1  1  2  2  2  3  3  3  4  4  4  1  2  3  4  5  6
TYPE ASSIGNMENTS      7  8  9 10  1  1  1  1  1  1  1  1  1  2  2  2  3  3  3  4
TYPE ASSIGNMENTS      4  4  1  2  3  4  5  6  7  8  9 10  1  1  1  1  1  1  1  1
TYPE ASSIGNMENTS      1  2  2  2  3  3  3  4  4  4  1  2  3  4  5  6  7  8  9 10
TYPE ASSIGNMENTS      1  1  1  1  1  1  1  1  1  2  2  2  3  3  3  4  4  4  1  2
TYPE ASSIGNMENTS      3  4  5  6  7  8  9 10  1  1  1  1  1  1  1  1  1  1  1  1
TYPE ASSIGNMENTS      1  2  2  2  3  3  3  4  4  4  1  2  3  4  5  6  7  8  9 10
TYPE ASSIGNMENTS      1  1  1  1  1  1  1  1  1  2  2  2  3  3  3  4  4  4  1  2
TYPE ASSIGNMENTS      3  4  5  6  7  8  9 10  1  1  1  1  1  1  1  1  1  2  2  2
TYPE ASSIGNMENTS      3  3  3  4  4  4  1  2  3  4  5  6  7  8  9 10  1  1  1  1
TYPE ASSIGNMENTS      1  1  1  1  1  2  2  2  3  3  3  4  4  4  1  2  3  4  5  6
TYPE ASSIGNMENTS      7  8  9 10  1  1  1  1  1  1  1  1  1  2  2  2  3  3  3  4
TYPE ASSIGNMENTS      4  4  1  2  3  4  5  6  7  8  9 10  1  1  1  1  1  1  1  1
TYPE ASSIGNMENTS      1  1  1  1  1  1  1  1  1  1  1  1  1  1  1  1  1  1  1  1
TYPE ASSIGNMENTS      1  1  1  1  1  1  1  1
EXPONENTS  0.3047525D+04 0.4573695D+03 0.1039487D+03 0.2921016D+02 0.9286663D+01
EXPONENTS  0.3163927D+01 0.7868272D+01 0.1881289D+01 0.5442493D+00 0.7868272D+01
EXPONENTS  0.1881289D+01 0.5442493D+00 0.7868272D+01 0.1881289D+01 0.5442493D+00
EXPONENTS  0.7868272D+01 0.1881289D+01 0.5442493D+00 0.1687145D+00 0.1687145D+00
EXPONENTS  0.1687145D+00 0.1687145D+00 0.8000000D+00 0.8000000D+00 0.8000000D+00
EXPONENTS  0.8000000D+00 0.8000000D+00 0.8000000D+00 0.3047525D+04 0.4573695D+03
EXPONENTS  0.1039487D+03 0.2921016D+02 0.9286663D+01 0.3163927D+01 0.7868272D+01
EXPONENTS  0.1881289D+01 0.5442493D+00 0.7868272D+01 0.1881289D+01 0.5442493D+00
EXPONENTS  0.7868272D+01 0.1881289D+01 0.5442493D+00 0.7868272D+01 0.1881289D+01
EXPONENTS  0.5442493D+00 0.1687145D+00 0.1687145D+00 0.1687145D+00 0.1687145D+00
EXPONENTS  0.8000000D+00 0.8000000D+00 0.8000000D+00 0.8000000D+00 0.8000000D+00
EXPONENTS  0.8000000D+00 0.3047525D+04 0.4573695D+03 0.1039487D+03 0.2921016D+02
EXPONENTS  0.9286663D+01 0.3163927D+01 0.7868272D+01 0.1881289D+01 0.5442493D+00
EXPONENTS  0.7868272D+01 0.1881289D+01 0.5442493D+00 0.7868272D+01 0.1881289D+01
EXPONENTS  0.5442493D+00 0.7868272D+01 0.1881289D+01 0.5442493D+00 0.1687145D+00
EXPONENTS  0.1687145D+00 0.1687145D+00 0.1687145D+00 0.8000000D+00 0.8000000D+00
EXPONENTS  0.8000000D+00 0.8000000D+00 0.8000000D+00 0.8000000D+00 0.3047525D+04
EXPONENTS  0.4573695D+03 0.1039487D+03 0.2921016D+02 0.9286663D+01 0.3163927D+01
EXPONENTS  0.7868272D+01 0.1881289D+01 0.5442493D+00 0.7868272D+01 0.1881289D+01
EXPONENTS  0.5442493D+00 0.7868272D+01 0.1881289D+01 0.5442493D+00 0.7868272D+01
EXPONENTS  0.1881289D+01 0.5442493D+00 0.1687145D+00 0.1687145D+00 0.1687145D+00
EXPONENTS  0.1687145D+00 0.8000000D+00 0.8000000D+00 0.8000000D+00 0.8000000D+00
EXPONENTS  0.8000000D+00 0.8000000D+00 0.3047525D+04 0.4573695D+03 0.1039487D+03
EXPONENTS  0.2921016D+02 0.9286663D+01 0.3163927D+01 0.7868272D+01 0.1881289D+01
EXPONENTS  0.5442493D+00 0.7868272D+01 0.1881289D+01 0.5442493D+00 0.7868272D+01
EXPONENTS  0.1881289D+01 0.5442493D+00 0.7868272D+01 0.1881289D+01 0.5442493D+00
EXPONENTS  0.1687145D+00 0.1687145D+00 0.1687145D+00 0.1687145D+00 0.8000000D+00
EXPONENTS  0.8000000D+00 0.8000000D+00 0.8000000D+00 0.8000000D+00 0.8000000D+00
EXPONENTS  0.3047525D+04 0.4573695D+03 0.1039487D+03 0.2921016D+02 0.9286663D+01
EXPONENTS  0.3163927D+01 0.7868272D+01 0.1881289D+01 0.5442493D+00 0.7868272D+01
EXPONENTS  0.1881289D+01 0.5442493D+00 0.7868272D+01 0.1881289D+01 0.5442493D+00
EXPONENTS  0.7868272D+01 0.1881289D+01 0.5442493D+00 0.1687145D+00 0.1687145D+00
EXPONENTS  0.1687145D+00 0.1687145D+00 0.8000000D+00 0.8000000D+00 0.8000000D+00
EXPONENTS  0.8000000D+00 0.8000000D+00 0.8000000D+00 0.3047525D+04 0.4573695D+03
EXPONENTS  0.1039487D+03 0.2921016D+02 0.9286663D+01 0.3163927D+01 0.7868272D+01
EXPONENTS  0.1881289D+01 0.5442493D+00 0.7868272D+01 0.1881289D+01 0.5442493D+00
EXPONENTS  0.7868272D+01 0.1881289D+01 0.5442493D+00 0.7868272D+01 0.1881289D+01
EXPONENTS  0.5442493D+00 0.1687145D+00 0.1687145D+00 0.1687145D+00 0.1687145D+00
EXPONENTS  0.8000000D+00 0.8000000D+00 0.8000000D+00 0.8000000D+00 0.8000000D+00
EXPONENTS  0.8000000D+00 0.3047525D+04 0.4573695D+03 0.1039487D+03 0.2921016D+02
EXPONENTS  0.9286663D+01 0.3163927D+01 0.7868272D+01 0.1881289D+01 0.5442493D+00
EXPONENTS  0.7868272D+01 0.1881289D+01 0.5442493D+00 0.7868272D+01 0.1881289D+01
EXPONENTS  0.5442493D+00 0.7868272D+01 0.1881289D+01 0.5442493D+00 0.1687145D+00
EXPONENTS  0.1687145D+00 0.1687145D+00 0.1687145D+00 0.8000000D+00 0.8000000D+00
EXPONENTS  0.8000000D+00 0.8000000D+00 0.8000000D+00 0.8000000D+00 0.3047525D+04
EXPONENTS  0.4573695D+03 0.1039487D+03 0.2921016D+02 0.9286663D+01 0.3163927D+01
EXPONENTS  0.7868272D+01 0.1881289D+01 0.5442493D+00 0.7868272D+01 0.1881289D+01
EXPONENTS  0.5442493D+00 0.7868272D+01 0.1881289D+01 0.5442493D+00 0.7868272D+01
EXPONENTS  0.1881289D+01 0.5442493D+00 0.1687145D+00 0.1687145D+00 0.1687145D+00
EXPONENTS  0.1687145D+00 0.8000000D+00 0.8000000D+00 0.8000000D+00 0.8000000D+00
EXPONENTS  0.8000000D+00 0.8000000D+00 0.3047525D+04 0.4573695D+03 0.1039487D+03
EXPONENTS  0.2921016D+02 0.9286663D+01 0.3163927D+01 0.7868272D+01 0.1881289D+01
EXPONENTS  0.5442493D+00 0.7868272D+01 0.1881289D+01 0.5442493D+00 0.7868272D+01
EXPONENTS  0.1881289D+01 0.5442493D+00 0.7868272D+01 0.1881289D+01 0.5442493D+00
EXPONENTS  0.1687145D+00 0.1687145D+00 0.1687145D+00 0.1687145D+00 0.8000000D+00
EXPONENTS  0.8000000D+00 0.8000000D+00 0.8000000D+00 0.8000000D+00 0.8000000D+00
EXPONENTS  0.3047525D+04 0.4573695D+03 0.1039487D+03 0.2921016D+02 0.9286663D+01
EXPONENTS  0.3163927D+01 0.7868272D+01 0.1881289D+01 0.5442493D+00 0.7868272D+01
EXPONENTS  0.1881289D+01 0.5442493D+00 0.7868272D+01 0.1881289D+01 0.5442493D+00
EXPONENTS  0.7868272D+01 0.1881289D+01 0.5442493D+00 0.1687145D+00 0.1687145D+00
EXPONENTS  0.1687145D+00 0.1687145D+00 0.8000000D+00 0.8000000D+00 0.8000000D+00
EXPONENTS  0.8000000D+00 0.8000000D+00 0.8000000D+00 0.1873114D+02 0.2825394D+01
EXPONENTS  0.6401217D+00 0.1612778D+00 0.3047525D+04 0.4573695D+03 0.1039487D+03
EXPONENTS  0.2921016D+02 0.9286663D+01 0.3163927D+01 0.7868272D+01 0.1881289D+01
EXPONENTS  0.5442493D+00 0.7868272D+01 0.1881289D+01 0.5442493D+00 0.7868272D+01
EXPONENTS  0.1881289D+01 0.5442493D+00 0.7868272D+01 0.1881289D+01 0.5442493D+00
EXPONENTS  0.1687145D+00 0.1687145D+00 0.1687145D+00 0.1687145D+00 0.8000000D+00
EXPONENTS  0.8000000D+00 0.8000000D+00 0.8000000D+00 0.8000000D+00 0.8000000D+00
EXPONENTS  0.3047525D+04 0.4573695D+03 0.1039487D+03 0.2921016D+02 0.9286663D+01
EXPONENTS  0.3163927D+01 0.7868272D+01 0.1881289D+01 0.5442493D+00 0.7868272D+01
EXPONENTS  0.1881289D+01 0.5442493D+00 0.7868272D+01 0.1881289D+01 0.5442493D+00
EXPONENTS  0.7868272D+01 0.1881289D+01 0.5442493D+00 0.1687145D+00 0.1687145D+00
EXPONENTS  0.1687145D+00 0.1687145D+00 0.8000000D+00 0.8000000D+00 0.8000000D+00
EXPONENTS  0.8000000D+00 0.8000000D+00 0.8000000D+00 0.3047525D+04 0.4573695D+03
EXPONENTS  0.1039487D+03 0.2921016D+02 0.9286663D+01 0.3163927D+01 0.7868272D+01
EXPONENTS  0.1881289D+01 0.5442493D+00 0.7868272D+01 0.1881289D+01 0.5442493D+00
EXPONENTS  0.7868272D+01 0.1881289D+01 0.5442493D+00 0.7868272D+01 0.1881289D+01
EXPONENTS  0.5442493D+00 0.1687145D+00 0.1687145D+00 0.1687145D+00 0.1687145D+00
EXPONENTS  0.8000000D+00 0.8000000D+00 0.8000000D+00 0.8000000D+00 0.8000000D+00
EXPONENTS  0.8000000D+00 0.3047525D+04 0.4573695D+03 0.1039487D+03 0.2921016D+02
EXPONENTS  0.9286663D+01 0.3163927D+01 0.7868272D+01 0.1881289D+01 0.5442493D+00
EXPONENTS  0.7868272D+01 0.1881289D+01 0.5442493D+00 0.7868272D+01 0.1881289D+01
EXPONENTS  0.5442493D+00 0.7868272D+01 0.1881289D+01 0.5442493D+00 0.1687145D+00
EXPONENTS  0.1687145D+00 0.1687145D+00 0.1687145D+00 0.8000000D+00 0.8000000D+00
EXPONENTS  0.8000000D+00 0.8000000D+00 0.8000000D+00 0.8000000D+00 0.3047525D+04
EXPONENTS  0.4573695D+03 0.1039487D+03 0.2921016D+02 0.9286663D+01 0.3163927D+01
EXPONENTS  0.7868272D+01 0.1881289D+01 0.5442493D+00 0.7868272D+01 0.1881289D+01
EXPONENTS  0.5442493D+00 0.7868272D+01 0.1881289D+01 0.5442493D+00 0.7868272D+01
EXPONENTS  0.1881289D+01 0.5442493D+00 0.1687145D+00 0.1687145D+00 0.1687145D+00
EXPONENTS  0.1687145D+00 0.8000000D+00 0.8000000D+00 0.8000000D+00 0.8000000D+00
EXPONENTS  0.8000000D+00 0.8000000D+00 0.1873114D+02 0.2825394D+01 0.6401217D+00
EXPONENTS  0.1612778D+00 0.1873114D+02 0.2825394D+01 0.6401217D+00 0.1612778D+00
EXPONENTS  0.1873114D+02 0.2825394D+01 0.6401217D+00 0.1612778D+00 0.1873114D+02
EXPONENTS  0.2825394D+01 0.6401217D+00 0.1612778D+00 0.1873114D+02 0.2825394D+01
EXPONENTS  0.6401217D+00 0.1612778D+00 0.1873114D+02 0.2825394D+01 0.6401217D+00
EXPONENTS  0.1612778D+00 0.1873114D+02 0.2825394D+01 0.6401217D+00 0.1612778D+00
EXPONENTS  0.1873114D+02 0.2825394D+01 0.6401217D+00 0.1612778D+00 0.1873114D+02
EXPONENTS  0.2825394D+01 0.6401217D+00 0.1612778D+00
MO    1     MO 0.0        OCC NO =    1.0000000  ORB. ENERGY =  -10.034448
 -0.30894507D-02 -0.56994332D-02 -0.92006524D-02 -0.11976516D-01 -0.10219583D-01
 -0.35285763D-02  0.15357475D-03  0.70782463D-04 -0.19848141D-03  0.28648918D-04
  0.21966173D-04  0.10962660D-04  0.96903566D-10  0.74299508D-10  0.37080662D-10
  0.28305603D-08  0.21702941D-08  0.10831289D-08  0.25593320D-03 -0.10970348D-03
 -0.47770531D-09 -0.11894901D-07  0.56723597D-04  0.61132611D-04  0.16056865D-04
  0.16955319D-09  0.87348540D-08 -0.10185110D-08  0.23785129D-03  0.43878919D-03
  0.70834180D-03  0.92205056D-03  0.78678741D-03  0.27165879D-03  0.89192093D-05
  0.41108554D-05 -0.11527268D-04  0.21699674D-04  0.16637934D-04  0.83034952D-05
 -0.50494465D-05 -0.38715953D-05 -0.19321974D-05  0.19935668D-08  0.15285406D-08
  0.76284889D-09 -0.16084742D-03  0.15211794D-04 -0.10980265D-03  0.28959146D-08
  0.52159529D-04  0.21181702D-04 -0.11662561D-04 -0.30668604D-04  0.14074300D-07
 -0.36380336D-08  0.19025156D-01  0.35097698D-01  0.56658567D-01  0.73752619D-01
  0.62933244D-01  0.21729337D-01 -0.57256838D-03 -0.26389624D-03  0.73999262D-03
  0.17451380D-03  0.13380611D-03  0.66778627D-04 -0.27881520D-03 -0.21377781D-03
 -0.10669011D-03  0.20724353D-07  0.15890119D-07  0.79302831D-08  0.62002248D-03
 -0.72827848D-04  0.31813156D-03 -0.10682982D-07 -0.58012474D-03 -0.65392933D-03
 -0.51335686D-03  0.12653695D-03 -0.15214942D-07  0.16091865D-07  0.37548734D+00
  0.69270082D+00  0.11182339D+01  0.14556083D+01  0.12420732D+01  0.42885802D+00
 -0.13962526D-01 -0.64353154D-02  0.18045296D-01  0.31577842D-03  0.24211887D-03
  0.12083428D-03 -0.15448824D-08 -0.11845178D-08 -0.59115740D-09  0.31797954D-07
  0.24380654D-07  0.12167655D-07 -0.19015739D-02 -0.32784449D-03  0.98544410D-09
 -0.33597707D-07 -0.75943265D-02 -0.74298561D-02 -0.75668483D-02 -0.92200400D-09
 -0.60945867D-08 -0.32219567D-08  0.19023554D-01  0.35094743D-01  0.56653796D-01
  0.73746409D-01  0.62927945D-01  0.21727507D-01 -0.57250915D-03 -0.26386894D-03
  0.73991606D-03  0.17451287D-03  0.13380540D-03  0.66778271D-04  0.27881504D-03
  0.21377769D-03  0.10669005D-03  0.15674073D-07  0.12017885D-07  0.59977668D-08
  0.62002886D-03 -0.72825673D-04 -0.31813125D-03 -0.43016115D-08 -0.58009427D-03
 -0.65389858D-03 -0.51332502D-03 -0.12653740D-03 -0.12466316D-07 -0.10267105D-07
  0.23782705D-03  0.43874446D-03  0.70826960D-03  0.92195657D-03  0.78670721D-03
  0.27163109D-03  0.89198113D-05  0.41111329D-05 -0.11528046D-04  0.21697997D-04
  0.16636648D-04  0.83028533D-05  0.50491731D-05  0.38713857D-05  0.19320928D-05
  0.19220330D-08  0.14736930D-08  0.73547607D-09 -0.16085029D-03  0.15213517D-04
  0.10980253D-03  0.50234538D-09  0.52162212D-04  0.21183104D-04 -0.11661744D-04
  0.30668589D-04  0.12986856D-07  0.22318149D-08  0.26594609D-03  0.49061861D-03
  0.79201056D-03  0.10309624D-02  0.87972210D-03  0.30374690D-03  0.25718940D-04
  0.11853836D-04 -0.33239393D-04  0.39815913D-05  0.30528317D-05  0.15235770D-05
 -0.38588362D-04 -0.29587108D-04 -0.14766041D-04  0.11238949D-08  0.86173136D-09
  0.43006434D-09  0.81437928D-04  0.35640786D-04  0.12173745D-04  0.35512987D-08
  0.17976942D-04  0.32884845D-04 -0.34596668D-04  0.11959123D-04  0.11004204D-07
 -0.12174339D-09  0.37545490D+00  0.69264098D+00  0.11181373D+01  0.14554825D+01
  0.12419659D+01  0.42882097D+00 -0.13961292D-01 -0.64347468D-02  0.18043702D-01
 -0.31581259D-03 -0.24214507D-03 -0.12084736D-03 -0.14599648D-08 -0.11194084D-08
 -0.55866325D-09 -0.30586644D-07 -0.23451899D-07 -0.11704141D-07 -0.19012284D-02
  0.32787449D-03 -0.90756818D-09  0.32381913D-07 -0.75937370D-02 -0.74292495D-02
 -0.75662227D-02  0.10630557D-08 -0.54500704D-08 -0.19641295D-08  0.19023248D-01
  0.35094179D-01  0.56652886D-01  0.73745224D-01  0.62926934D-01  0.21727158D-01
 -0.57251015D-03 -0.26386940D-03  0.73991735D-03 -0.17449883D-03 -0.13379464D-03
 -0.66772901D-04 -0.27878754D-03 -0.21375661D-03 -0.10667953D-03 -0.15256319D-07
 -0.11697578D-07 -0.58379111D-08  0.61993588D-03  0.72798515D-04  0.31809926D-03
  0.49578960D-08 -0.58006150D-03 -0.65385751D-03 -0.51330427D-03 -0.12652108D-03
 -0.12051670D-07 -0.99567557D-08  0.26590337D-03  0.49053979D-03  0.79188332D-03
  0.10307968D-02  0.87958077D-03  0.30369810D-03  0.25722997D-04  0.11855706D-04
 -0.33244637D-04 -0.39825771D-05 -0.30535875D-05 -0.15239542D-05 -0.38588293D-04
 -0.29587056D-04 -0.14766014D-04  0.15826222D-09  0.12134543D-09  0.60559873D-10
  0.81473730D-04 -0.35622288D-04  0.12188027D-04 -0.38400791D-08  0.17974226D-04
  0.32880996D-04 -0.34599678D-04 -0.11956670D-04  0.10868532D-07 -0.25896744D-08
  0.23781346D-03  0.43871940D-03  0.70822914D-03  0.92190390D-03  0.78666227D-03
  0.27161558D-03  0.89211330D-05  0.41117421D-05 -0.11529754D-04 -0.21700035D-04
 -0.16638211D-04 -0.83036332D-05 -0.50487084D-05 -0.38710294D-05 -0.19319150D-05
 -0.21684050D-08 -0.16625954D-08 -0.82975162D-09 -0.16083811D-03 -0.15210791D-04
 -0.10978793D-03 -0.70649305D-09  0.52154619D-04  0.21179722D-04 -0.11663639D-04
  0.30670971D-04  0.12410501D-07  0.23983180D-08 -0.65283211D-05 -0.11073268D-04
 -0.12606524D-04 -0.22306406D-04 -0.30899167D-02 -0.57002929D-02 -0.92020402D-02
 -0.11978322D-01 -0.10221124D-01 -0.35291085D-02  0.15358920D-03  0.70789121D-04
 -0.19850008D-03 -0.28648705D-04 -0.21966010D-04 -0.10962578D-04 -0.54066953D-11
 -0.41455110D-11 -0.20689006D-11 -0.29702886D-08 -0.22774289D-08 -0.11365966D-08
  0.25590786D-03  0.10969283D-03 -0.17812738D-09  0.11076539D-07  0.56732980D-04
  0.61142814D-04  0.16068874D-04 -0.23130875D-09  0.81462091D-08 -0.64432457D-09
  0.23779103D-03  0.43867802D-03  0.70816234D-03  0.92181695D-03  0.78658807D-03
  0.27158996D-03  0.89216898D-05  0.41119987D-05 -0.11530473D-04 -0.21698456D-04
 -0.16637000D-04 -0.83030289D-05  0.50485566D-05  0.38709130D-05  0.19318569D-05
 -0.21072664D-08 -0.16157182D-08 -0.80635664D-09 -0.16083956D-03 -0.15211912D-04
  0.10978818D-03 -0.26621079D-08  0.52157346D-04  0.21181006D-04 -0.11662964D-04
 -0.30670247D-04  0.12671097D-07 -0.34697935D-08  0.19021724D-01  0.35091366D-01
  0.56648345D-01  0.73739314D-01  0.62921890D-01  0.21725417D-01 -0.57245401D-03
 -0.26384353D-03  0.73984480D-03 -0.17449847D-03 -0.13379436D-03 -0.66772761D-04
  0.27878652D-03  0.21375582D-03  0.10667914D-03 -0.20655234D-07 -0.15837123D-07
 -0.79038344D-08  0.61994466D-03  0.72799507D-04 -0.31809937D-03  0.10536894D-07
 -0.58003296D-03 -0.65382857D-03 -0.51327424D-03  0.12652286D-03 -0.14128055D-07
  0.14704938D-07  0.26586328D-03  0.49046585D-03  0.79176395D-03  0.10306414D-02
  0.87944818D-03  0.30365232D-03  0.25723931D-04  0.11856136D-04 -0.33245844D-04
 -0.39828060D-05 -0.30537630D-05 -0.15240418D-05  0.38587496D-04  0.29586444D-04
  0.14765709D-04 -0.57104626D-09 -0.43784205D-09 -0.21851387D-09  0.81470468D-04
 -0.35622517D-04 -0.12186932D-04 -0.36226937D-08  0.17975667D-04  0.32882447D-04
 -0.34598465D-04  0.11957316D-04  0.10450534D-07  0.34652470D-09  0.26590304D-03
  0.49053919D-03  0.79188235D-03  0.10307955D-02  0.87957969D-03  0.30369773D-03
  0.25720283D-04  0.11854455D-04 -0.33241129D-04  0.39819101D-05  0.30530761D-05
  0.15236990D-05  0.38587402D-04  0.29586373D-04  0.14765674D-04  0.18793519D-09
  0.14409678D-09  0.71914393D-10  0.81437672D-04  0.35639865D-04 -0.12173939D-04
  0.37830185D-08  0.17978427D-04  0.32886634D-04 -0.34595597D-04 -0.11959716D-04
  0.10828405D-07 -0.26590187D-08 -0.35355068D-05 -0.59968887D-05 -0.68272458D-05
  0.13612614D-05 -0.35344852D-05 -0.59951558D-05 -0.68252730D-05  0.13670717D-05
 -0.35356028D-05 -0.59970516D-05 -0.68274313D-05  0.13609340D-05  0.31682612D-05
  0.53739706D-05  0.61180756D-05  0.32516588D-04 -0.65292907D-05 -0.11074913D-04
 -0.12608397D-04 -0.22310968D-04 -0.65292975D-05 -0.11074924D-04 -0.12608410D-04
 -0.22311013D-04 -0.35344885D-05 -0.59951615D-05 -0.68252795D-05  0.13672966D-05
  0.31681797D-05  0.53738323D-05  0.61179182D-05  0.32513413D-04 -0.65283412D-05
 -0.11073302D-04 -0.12606563D-04 -0.22306541D-04
MO    2     MO 0.0        OCC NO =    1.0000000  ORB. ENERGY =  -10.034199
 -0.34620501D+00 -0.63868065D+00 -0.10310286D+01 -0.13420929D+01 -0.11452103D+01
 -0.39541359D+00  0.12939926D-01  0.59640003D-02 -0.16723679D-01  0.48037274D-04
  0.36831935D-04  0.18381717D-04  0.22660098D-08  0.17374326D-08  0.86710064D-09
  0.54990416D-08  0.42163163D-08  0.21042374D-08  0.26356375D-02 -0.61675949D-03
 -0.19387066D-08 -0.67170080D-07  0.66844997D-02  0.66046943D-02  0.68553007D-02
 -0.40223090D-08 -0.36442957D-07  0.57190342D-08 -0.59731250D-02 -0.11019249D-01
 -0.17788485D-01 -0.23155322D-01 -0.19758478D-01 -0.68221277D-02  0.19174254D-04
  0.88373962D-05 -0.24780981D-04  0.15736768D-03  0.12065956D-03  0.60217575D-04
  0.28307853D-03  0.21704666D-03  0.10832150D-03  0.13614210D-07  0.10438512D-07
  0.52095493D-08 -0.14748799D-02  0.18688574D-03 -0.54035130D-03  0.26313679D-07
  0.32840492D-03  0.34096970D-03  0.28916383D-03  0.12487805D-03  0.73837461D-08
  0.12534298D-07 -0.10666162D-03 -0.19676986D-03 -0.31764757D-03 -0.41348276D-03
 -0.35282559D-03 -0.12182220D-03  0.35399210D-04  0.16315463D-04 -0.45750263D-04
 -0.52879927D-04 -0.40544974D-04 -0.20234784D-04 -0.27538233D-05 -0.21114571D-05
 -0.10537651D-05 -0.54920994D-08 -0.42109934D-08 -0.21015809D-08  0.62138031D-03
  0.45392125D-03  0.33841506D-03  0.44972257D-07 -0.37595136D-04 -0.16930117D-04
 -0.24843727D-04  0.14056935D-04 -0.25660111D-08  0.15541853D-08  0.43209186D-02
  0.79712510D-02  0.12868071D-01  0.16750405D-01  0.14293151D-01  0.49350814D-02
 -0.14795983D-03 -0.68194550D-04  0.19122464D-03  0.60850848D-04  0.46656571D-04
  0.23284899D-04 -0.38370158D-10 -0.29419804D-10 -0.14682544D-10  0.68689807D-08
  0.52666987D-08  0.26284518D-08  0.31568099D-03 -0.76328528D-03  0.16975724D-10
 -0.79366815D-07 -0.34691004D-05 -0.65322921D-04 -0.74775033D-04 -0.13929344D-09
  0.14840234D-07 -0.16568482D-09 -0.10664775D-03 -0.19674427D-03 -0.31760626D-03
 -0.41342898D-03 -0.35277969D-03 -0.12180635D-03  0.35399343D-04  0.16315525D-04
 -0.45750434D-04 -0.52880417D-04 -0.40545350D-04 -0.20234971D-04  0.27538147D-05
  0.21114504D-05  0.10537617D-05 -0.49686588D-08 -0.38096524D-08 -0.19012835D-08
  0.62138649D-03  0.45392424D-03 -0.33841536D-03  0.51365523D-07 -0.37595159D-04
 -0.16930603D-04 -0.24844334D-04 -0.14057783D-04 -0.16638242D-08 -0.20368585D-08
 -0.59728930D-02 -0.11018821D-01 -0.17787794D-01 -0.23154423D-01 -0.19757711D-01
 -0.68218627D-02  0.19166498D-04  0.88338216D-05 -0.24770958D-04  0.15736671D-03
  0.12065881D-03  0.60217204D-04 -0.28307653D-03 -0.21704513D-03 -0.10832073D-03
  0.20049907D-07  0.15372997D-07  0.76722030D-08 -0.14748815D-02  0.18688903D-03
  0.54034980D-03  0.13976812D-07  0.32840026D-03  0.34096592D-03  0.28915937D-03
 -0.12488002D-03  0.98842705D-08 -0.15012188D-07 -0.75620344D-05 -0.13950477D-04
 -0.22520395D-04 -0.29314863D-04 -0.25014426D-04 -0.86368801D-05  0.22904368D-04
  0.10556602D-04 -0.29601815D-04  0.17517941D-04  0.13431646D-04  0.67033328D-05
  0.38652707D-04  0.29636444D-04  0.14790663D-04  0.15538024D-08  0.11913571D-08
  0.59457068D-09  0.49772290D-03 -0.14332000D-03  0.14376701D-03 -0.16183648D-07
  0.29767811D-04  0.15030043D-04 -0.84124443D-05 -0.24962075D-04  0.79545673D-08
 -0.33808553D-08 -0.38557199D-02 -0.71130503D-02 -0.11482669D-01 -0.14947023D-01
 -0.12754322D-01 -0.44037608D-02  0.13782730D-03  0.63524475D-04 -0.17812926D-03
  0.76608182D-04  0.58738295D-04  0.29314526D-04 -0.27907868D-09 -0.21397983D-09
 -0.10679093D-09  0.76709318D-08  0.58815840D-08  0.29353226D-08 -0.24120342D-03
 -0.80362759D-03  0.47547567D-09 -0.81533679D-07 -0.45235866D-05  0.56799717D-04
  0.59774081D-04 -0.59881301D-10 -0.13572350D-07  0.22925299D-10  0.19567000D-03
  0.36097295D-03  0.58272227D-03  0.75853125D-03  0.64725609D-03  0.22348197D-03
 -0.44795220D-04 -0.20646076D-04  0.57893752D-04 -0.54546920D-04 -0.41823119D-04
 -0.20872667D-04  0.35832694D-06  0.27474237D-06  0.13711570D-06 -0.59910146D-08
 -0.45935300D-08 -0.22924934D-08 -0.71772120D-03  0.49160828D-03 -0.37256203D-03
  0.53037204D-07  0.42842347D-04  0.17171777D-04  0.28318104D-04  0.12401616D-04
  0.28206627D-08  0.15380119D-08  0.73478980D-05  0.13555437D-04  0.21882678D-04
  0.28484745D-04  0.24306085D-04  0.83923070D-05 -0.21215059D-04 -0.97780015D-05
  0.27418537D-04  0.25845727D-04  0.19816864D-04  0.98900042D-05 -0.41054428D-04
 -0.31477931D-04 -0.15709694D-04  0.31397429D-08  0.24073557D-08  0.12014392D-08
 -0.50522636D-03 -0.14907377D-03 -0.14945069D-03 -0.14307586D-07 -0.29210878D-04
 -0.17263267D-04  0.65799025D-05 -0.30183764D-04 -0.72942194D-08 -0.25724606D-08
  0.69781884D-02  0.12873395D-01  0.20781651D-01  0.27051535D-01  0.23083124D-01
  0.79700479D-02 -0.24184370D-04 -0.11146554D-04  0.31256101D-04  0.17740412D-03
  0.13602223D-03  0.67884624D-04 -0.33033824D-03 -0.25328241D-03 -0.12640567D-03
  0.20657195D-07  0.15838627D-07  0.79045849D-08  0.16800732D-02  0.20785438D-03
  0.61903534D-03  0.15565648D-07 -0.38538176D-03 -0.39923494D-03 -0.33769049D-03
  0.14792195D-03 -0.10657930D-07  0.16068290D-07  0.92895939D-05  0.15756910D-04
  0.17938685D-04  0.14664588D-03  0.40435685D+00  0.74595944D+00  0.12042098D+01
  0.15675234D+01  0.13375706D+01  0.46183097D+00 -0.15109404D-01 -0.69639103D-02
  0.19527531D-01  0.54962681D-04  0.42141898D-04  0.21031761D-04 -0.29707349D-08
 -0.22777711D-08 -0.11367674D-08  0.46414295D-08  0.35587538D-08  0.17760675D-08
 -0.30496747D-02 -0.70578153D-03  0.13538073D-08 -0.70393143D-07 -0.78077229D-02
 -0.77118778D-02 -0.80107826D-02 -0.70740567D-08  0.41630268D-07 -0.51002513D-08
  0.69778524D-02  0.12872775D-01  0.20780651D-01  0.27050232D-01  0.23082012D-01
  0.79696642D-02 -0.24173425D-04 -0.11141510D-04  0.31241956D-04  0.17740221D-03
  0.13602077D-03  0.67883895D-04  0.33033585D-03  0.25328058D-03  0.12640476D-03
  0.14915972D-07  0.11436621D-07  0.57076754D-08  0.16800739D-02  0.20785891D-03
 -0.61903411D-03  0.26032821D-07 -0.38537513D-03 -0.39922975D-03 -0.33768397D-03
 -0.14792568D-03 -0.80087453D-08 -0.13902139D-07  0.19564820D-03  0.36093272D-03
  0.58265733D-03  0.75844672D-03  0.64718396D-03  0.22345707D-03 -0.44794949D-04
 -0.20645951D-04  0.57893402D-04 -0.54547684D-04 -0.41823704D-04 -0.20872960D-04
 -0.35832461D-06 -0.27474059D-06 -0.13711481D-06 -0.54920365D-08 -0.42109453D-08
 -0.21015568D-08 -0.71772901D-03  0.49161024D-03  0.37256396D-03  0.46337513D-07
  0.42842926D-04  0.17172589D-04  0.28318706D-04 -0.12402101D-04  0.27084473D-08
 -0.15347064D-08  0.73474740D-05  0.13554655D-04  0.21881416D-04  0.28483102D-04
  0.24304682D-04  0.83918228D-05 -0.21215270D-04 -0.97780986D-05  0.27418809D-04
  0.25845346D-04  0.19816572D-04  0.98898581D-05  0.41054547D-04  0.31478023D-04
  0.15709740D-04  0.21970141D-08  0.16845310D-08  0.84069905D-09 -0.50522815D-03
 -0.14907354D-03  0.14945091D-03 -0.16410376D-07 -0.29211403D-04 -0.17263281D-04
  0.65800169D-05  0.30183401D-04 -0.74529851D-08  0.40329261D-08 -0.75617823D-05
 -0.13950012D-04 -0.22519644D-04 -0.29313886D-04 -0.25013592D-04 -0.86365921D-05
  0.22904557D-04  0.10556689D-04 -0.29602059D-04  0.17517991D-04  0.13431684D-04
  0.67033519D-05 -0.38652840D-04 -0.29636546D-04 -0.14790714D-04  0.19286172D-08
  0.14787413D-08  0.73799555D-09  0.49772391D-03 -0.14332028D-03 -0.14376739D-03
 -0.12957966D-07  0.29768111D-04  0.15030040D-04 -0.84126100D-05  0.24961979D-04
  0.71256771D-08  0.32203073D-08  0.74409627D-05  0.12621281D-04  0.14368882D-04
  0.46861749D-04 -0.88076591D-05 -0.14939457D-04 -0.17008044D-04 -0.49609266D-04
  0.74409000D-05  0.12621175D-04  0.14368761D-04  0.46861692D-04  0.76525505D-04
  0.12980174D-03  0.14777469D-03 -0.79418643D-04 -0.83847951D-05 -0.14222199D-04
 -0.16191471D-04 -0.12820128D-03 -0.83848035D-05 -0.14222214D-04 -0.16191488D-04
 -0.12820115D-03 -0.88077110D-05 -0.14939545D-04 -0.17008144D-04 -0.49609391D-04
 -0.88809550D-04 -0.15063781D-03 -0.17149582D-03  0.96904846D-04  0.92896715D-05
  0.15757041D-04  0.17938834D-04  0.14664609D-03
MO    3     MO 0.0        OCC NO =    1.0000000  ORB. ENERGY =  -10.034198