 Generated by Multiwfn
GAUSSIAN            105 MOL ORBITALS    488 PRIMITIVES       26 NUCLEI
  C    1    (CENTRE  1)   6.63326567 -0.00000011  0.00069716  CHARGE =  6.0
  C    2    (CENTRE  2)   5.33354140 -2.27863867  0.00058096  CHARGE =  6.0
  C    3    (CENTRE  3)   2.69065278 -2.32713581  0.00029680  CHARGE =  6.0
  C    4    (CENTRE  4)   1.34325296 -0.00000009  0.00013245  CHARGE =  6.0
  C    5    (CENTRE  5)   2.69065303  2.32713764  0.00024718  CHARGE =  6.0
  C    6    (CENTRE  6)   5.33353685  2.27864077  0.00053014  CHARGE =  6.0
  C    7    (CENTRE  7)   1.28047867 -4.63917879  0.00016885  CHARGE =  6.0
  C    8    (CENTRE  8)  -1.34325290 -0.00000006 -0.00014307  CHARGE =  6.0
  C    9    (CENTRE  9)  -2.69064987 -2.32713639 -0.00025948  CHARGE =  6.0
  C   10    (CENTRE 10)  -1.28047453 -4.63917937 -0.00009700  CHARGE =  6.0
  C   11    (CENTRE 11)  -5.33353913 -2.27864069 -0.00052546  CHARGE =  6.0
  H   12    (CENTRE 12)  -6.36353807 -4.04626132 -0.00061102  CHARGE =  1.0
  C   13    (CENTRE 13)  -6.63326612 -0.00000444 -0.00067391  CHARGE =  6.0
  C   14    (CENTRE 14)  -5.33353909  2.27863837 -0.00056276  CHARGE =  6.0
  C   15    (CENTRE 15)  -2.69065575  2.32713679 -0.00029769  CHARGE =  6.0
  C   16    (CENTRE 16)  -1.28047701  4.63918073 -0.00017820  CHARGE =  6.0
  C   17    (CENTRE 17)   1.28047359  4.63918111  0.00007857  CHARGE =  6.0
  H   18    (CENTRE 18)   2.31304440  6.40568523  0.00015118  CHARGE =  1.0
  H   19    (CENTRE 19)  -2.31305100  6.40568353 -0.00029340  CHARGE =  1.0
  H   20    (CENTRE 20)   2.31304678 -6.40568455  0.00028824  CHARGE =  1.0
  H   21    (CENTRE 21)   8.67778290  0.00000282  0.00091795  CHARGE =  1.0
  H   22    (CENTRE 22)   6.36354175 -4.04625811  0.00071502  CHARGE =  1.0
  H   23    (CENTRE 23)   6.36354636  4.04625489  0.00061838  CHARGE =  1.0
  H   24    (CENTRE 24)  -2.31304807 -6.40568196 -0.00019343  CHARGE =  1.0
  H   25    (CENTRE 25)  -8.67778324 -0.00000119 -0.00088010  CHARGE =  1.0
  H   26    (CENTRE 26)  -6.36354534  4.04625470 -0.00068011  CHARGE =  1.0
CENTRE ASSIGNMENTS    1  1  1  1  1  1  1  1  1  1  1  1  1  1  1  1  1  1  1  1
CENTRE ASSIGNMENTS    1  1  1  1  1  1  1  1  2  2  2  2  2  2  2  2  2  2  2  2
CENTRE ASSIGNMENTS    2  2  2  2  2  2  2  2  2  2  2  2  2  2  2  2  3  3  3  3
CENTRE ASSIGNMENTS    3  3  3  3  3  3  3  3  3  3  3  3  3  3  3  3  3  3  3  3
CENTRE ASSIGNMENTS    3  3  3  3  4  4  4  4  4  4  4  4  4  4  4  4  4  4  4  4
CENTRE ASSIGNMENTS    4  4  4  4  4  4  4  4  4  4  4  4  5  5  5  5  5  5  5  5
CENTRE ASSIGNMENTS    5  5  5  5  5  5  5  5  5  5  5  5  5  5  5  5  5  5  5  5
CENTRE ASSIGNMENTS    6  6  6  6  6  6  6  6  6  6  6  6  6  6  6  6  6  6  6  6
CENTRE ASSIGNMENTS    6  6  6  6  6  6  6  6  7  7  7  7  7  7  7  7  7  7  7  7
CENTRE ASSIGNMENTS    7  7  7  7  7  7  7  7  7  7  7  7  7  7  7  7  8  8  8  8
CENTRE ASSIGNMENTS    8  8  8  8  8  8  8  8  8  8  8  8  8  8  8  8  8  8  8  8
CENTRE ASSIGNMENTS    8  8  8  8  9  9  9  9  9  9  9  9  9  9  9  9  9  9  9  9
CENTRE ASSIGNMENTS    9  9  9  9  9  9  9  9  9  9  9  9 10 10 10 10 10 10 10 10
CENTRE ASSIGNMENTS   10 10 10 10 10 10 10 10 10 10 10 10 10 10 10 10 10 10 10 10
CENTRE ASSIGNMENTS   11 11 11 11 11 11 11 11 11 11 11 11 11 11 11 11 11 11 11 11
CENTRE ASSIGNMENTS   11 11 11 11 11 11 11 11 12 12 12 12 13 13 13 13 13 13 13 13
CENTRE ASSIGNMENTS   13 13 13 13 13 13 13 13 13 13 13 13 13 13 13 13 13 13 13 13
CENTRE ASSIGNMENTS   14 14 14 14 14 14 14 14 14 14 14 14 14 14 14 14 14 14 14 14
CENTRE ASSIGNMENTS   14 14 14 14 14 14 14 14 15 15 15 15 15 15 15 15 15 15 15 15
CENTRE ASSIGNMENTS   15 15 15 15 15 15 15 15 15 15 15 15 15 15 15 15 16 16 16 16
CENTRE ASSIGNMENTS   16 16 16 16 16 16 16 16 16 16 16 16 16 16 16 16 16 16 16 16
CENTRE ASSIGNMENTS   16 16 16 16 17 17 17 17 17 17 17 17 17 17 17 17 17 17 17 17
CENTRE ASSIGNMENTS   17 17 17 17 17 17 17 17 17 17 17 17 18 18 18 18 19 19 19 19
CENTRE ASSIGNMENTS   20 20 20 20 21 21 21 21 22 22 22 22 23 23 23 23 24 24 24 24
CENTRE ASSIGNMENTS   25 25 25 25 26 26 26 26
TYPE ASSIGNMENTS      1  1  1  1  1  1  1  1  1  2  2  2  3  3  3  4  4  4  1  2
TYPE ASSIGNMENTS      3  4  5  6  7  8  9 10  1  1  1  1  1  1  1  1  1  2  2  2
TYPE ASSIGNMENTS      3  3  3  4  4  4  1  2  3  4  5  6  7  8  9 10  1  1  1  1
TYPE ASSIGNMENTS      1  1  1  1  1  2  2  2  3  3  3  4  4  4  1  2  3  4  5  6
TYPE ASSIGNMENTS      7  8  9 10  1  1  1  1  1  1  1  1  1  2  2  2  3  3  3  4
TYPE ASSIGNMENTS      4  4  1  2  3  4  5  6  7  8  9 10  1  1  1  1  1  1  1  1
TYPE ASSIGNMENTS      1  2  2  2  3  3  3  4  4  4  1  2  3  4  5  6  7  8  9 10
TYPE ASSIGNMENTS      1  1  1  1  1  1  1  1  1  2  2  2  3  3  3  4  4  4  1  2
TYPE ASSIGNMENTS      3  4  5  6  7  8  9 10  1  1  1  1  1  1  1  1  1  2  2  2
TYPE ASSIGNMENTS      3  3  3  4  4  4  1  2  3  4  5  6  7  8  9 10  1  1  1  1
TYPE ASSIGNMENTS      1  1  1  1  1  2  2  2  3  3  3  4  4  4  1  2  3  4  5  6
TYPE ASSIGNMENTS      7  8  9 10  1  1  1  1  1  1  1  1  1  2  2  2  3  3  3  4
TYPE ASSIGNMENTS      4  4  1  2  3  4  5  6  7  8  9 10  1  1  1  1  1  1  1  1
TYPE ASSIGNMENTS      1  2  2  2  3  3  3  4  4  4  1  2  3  4  5  6  7  8  9 10
TYPE ASSIGNMENTS      1  1  1  1  1  1  1  1  1  2  2  2  3  3  3  4  4  4  1  2
TYPE ASSIGNMENTS      3  4  5  6  7  8  9 10  1  1  1  1  1  1  1  1  1  1  1  1
TYPE ASSIGNMENTS      1  2  2  2  3  3  3  4  4  4  1  2  3  4  5  6  7  8  9 10
TYPE ASSIGNMENTS      1  1  1  1  1  1  1  1  1  2  2  2  3  3  3  4  4  4  1  2
TYPE ASSIGNMENTS      3  4  5  6  7  8  9 10  1  1  1  1  1  1  1  1  1  2  2  2
TYPE ASSIGNMENTS      3  3  3  4  4  4  1  2  3  4  5  6  7  8  9 10  1  1  1  1
TYPE ASSIGNMENTS      1  1  1  1  1  2  2  2  3  3  3  4  4  4  1  2  3  4  5  6
TYPE ASSIGNMENTS      7  8  9 10  1  1  1  1  1  1  1  1  1  2  2  2  3  3  3  4
TYPE ASSIGNMENTS      4  4  1  2  3  4  5  6  7  8  9 10  1  1  1  1  1  1  1  1
TYPE ASSIGNMENTS      1  1  1  1  1  1  1  1  1  1  1  1  1  1  1  1  1  1  1  1
TYPE ASSIGNMENTS      1  1  1  1  1  1  1  1
EXPONENTS  0.3047525D+04 0.4573695D+03 0.1039487D+03 0.2921016D+02 0.9286663D+01
EXPONENTS  0.3163927D+01 0.7868272D+01 0.1881289D+01 0.5442493D+00 0.7868272D+01
EXPONENTS  0.1881289D+01 0.5442493D+00 0.7868272D+01 0.1881289D+01 0.5442493D+00
EXPONENTS  0.7868272D+01 0.1881289D+01 0.5442493D+00 0.1687145D+00 0.1687145D+00
EXPONENTS  0.1687145D+00 0.1687145D+00 0.8000000D+00 0.8000000D+00 0.8000000D+00
EXPONENTS  0.8000000D+00 0.8000000D+00 0.8000000D+00 0.3047525D+04 0.4573695D+03
EXPONENTS  0.1039487D+03 0.2921016D+02 0.9286663D+01 0.3163927D+01 0.7868272D+01
EXPONENTS  0.1881289D+01 0.5442493D+00 0.7868272D+01 0.1881289D+01 0.5442493D+00
EXPONENTS  0.7868272D+01 0.1881289D+01 0.5442493D+00 0.7868272D+01 0.1881289D+01
EXPONENTS  0.5442493D+00 0.1687145D+00 0.1687145D+00 0.1687145D+00 0.1687145D+00
EXPONENTS  0.8000000D+00 0.8000000D+00 0.8000000D+00 0.8000000D+00 0.8000000D+00
EXPONENTS  0.8000000D+00 0.3047525D+04 0.4573695D+03 0.1039487D+03 0.2921016D+02
EXPONENTS  0.9286663D+01 0.3163927D+01 0.7868272D+01 0.1881289D+01 0.5442493D+00
EXPONENTS  0.7868272D+01 0.1881289D+01 0.5442493D+00 0.7868272D+01 0.1881289D+01
EXPONENTS  0.5442493D+00 0.7868272D+01 0.1881289D+01 0.5442493D+00 0.1687145D+00
EXPONENTS  0.1687145D+00 0.1687145D+00 0.1687145D+00 0.8000000D+00 0.8000000D+00
EXPONENTS  0.8000000D+00 0.8000000D+00 0.8000000D+00 0.8000000D+00 0.3047525D+04
EXPONENTS  0.4573695D+03 0.1039487D+03 0.2921016D+02 0.9286663D+01 0.3163927D+01
EXPONENTS  0.7868272D+01 0.1881289D+01 0.5442493D+00 0.7868272D+01 0.1881289D+01
EXPONENTS  0.5442493D+00 0.7868272D+01 0.1881289D+01 0.5442493D+00 0.7868272D+01
EXPONENTS  0.1881289D+01 0.5442493D+00 0.1687145D+00 0.1687145D+00 0.1687145D+00
EXPONENTS  0.1687145D+00 0.8000000D+00 0.8000000D+00 0.8000000D+00 0.8000000D+00
EXPONENTS  0.8000000D+00 0.8000000D+00 0.3047525D+04 0.4573695D+03 0.1039487D+03
EXPONENTS  0.2921016D+02 0.9286663D+01 0.3163927D+01 0.7868272D+01 0.1881289D+01
EXPONENTS  0.5442493D+00 0.7868272D+01 0.1881289D+01 0.5442493D+00 0.7868272D+01
EXPONENTS  0.1881289D+01 0.5442493D+00 0.7868272D+01 0.1881289D+01 0.5442493D+00
EXPONENTS  0.1687145D+00 0.1687145D+00 0.1687145D+00 0.1687145D+00 0.8000000D+00
EXPONENTS  0.8000000D+00 0.8000000D+00 0.8000000D+00 0.8000000D+00 0.8000000D+00
EXPONENTS  0.3047525D+04 0.4573695D+03 0.1039487D+03 0.2921016D+02 0.9286663D+01
EXPONENTS  0.3163927D+01 0.7868272D+01 0.1881289D+01 0.5442493D+00 0.7868272D+01
EXPONENTS  0.1881289D+01 0.5442493D+00 0.7868272D+01 0.1881289D+01 0.5442493D+00
EXPONENTS  0.7868272D+01 0.1881289D+01 0.5442493D+00 0.1687145D+00 0.1687145D+00
EXPONENTS  0.1687145D+00 0.1687145D+00 0.8000000D+00 0.8000000D+00 0.8000000D+00
EXPONENTS  0.8000000D+00 0.8000000D+00 0.8000000D+00 0.3047525D+04 0.4573695D+03
EXPONENTS  0.1039487D+03 0.2921016D+02 0.9286663D+01 0.3163927D+01 0.7868272D+01
EXPONENTS  0.1881289D+01 0.5442493D+00 0.7868272D+01 0.1881289D+01 0.5442493D+00
EXPONENTS  0.7868272D+01 0.1881289D+01 0.5442493D+00 0.7868272D+01 0.1881289D+01
EXPONENTS  0.5442493D+00 0.1687145D+00 0.1687145D+00 0.1687145D+00 0.1687145D+00
EXPONENTS  0.8000000D+00 0.8000000D+00 0.8000000D+00 0.8000000D+00 0.8000000D+00
EXPONENTS  0.8000000D+00 0.3047525D+04 0.4573695D+03 0.1039487D+03 0.2921016D+02
EXPONENTS  0.9286663D+01 0.3163927D+01 0.7868272D+01 0.1881289D+01 0.5442493D+00
EXPONENTS  0.7868272D+01 0.1881289D+01 0.5442493D+00 0.7868272D+01 0.1881289D+01
EXPONENTS  0.5442493D+00 0.7868272D+01 0.1881289D+01 0.5442493D+00 0.1687145D+00
EXPONENTS  0.1687145D+00 0.1687145D+00 0.1687145D+00 0.8000000D+00 0.8000000D+00
EXPONENTS  0.8000000D+00 0.8000000D+00 0.8000000D+00 0.8000000D+00 0.3047525D+04
EXPONENTS  0.4573695D+03 0.1039487D+03 0.2921016D+02 0.9286663D+01 0.3163927D+01
EXPONENTS  0.7868272D+01 0.1881289D+01 0.5442493D+00 0.7868272D+01 0.1881289D+01
EXPONENTS  0.5442493D+00 0.7868272D+01 0.1881289D+01 0.5442493D+00 0.7868272D+01
EXPONENTS  0.1881289D+01 0.5442493D+00 0.1687145D+00 0.1687145D+00 0.1687145D+00
EXPONENTS  0.1687145D+00 0.8000000D+00 0.8000000D+00 0.8000000D+00 0.8000000D+00
EXPONENTS  0.8000000D+00 0.8000000D+00 0.3047525D+04 0.4573695D+03 0.1039487D+03
EXPONENTS  0.2921016D+02 0.9286663D+01 0.3163927D+01 0.7868272D+01 0.1881289D+01
EXPONENTS  0.5442493D+00 0.7868272D+01 0.1881289D+01 0.5442493D+00 0.7868272D+01
EXPONENTS  0.1881289D+01 0.5442493D+00 0.7868272D+01 0.1881289D+01 0.5442493D+00
EXPONENTS  0.1687145D+00 0.1687145D+00 0.1687145D+00 0.1687145D+00 0.8000000D+00
EXPONENTS  0.8000000D+00 0.8000000D+00 0.8000000D+00 0.8000000D+00 0.8000000D+00
EXPONENTS  0.3047525D+04 0.4573695D+03 0.1039487D+03 0.2921016D+02 0.9286663D+01
EXPONENTS  0.3163927D+01 0.7868272D+01 0.1881289D+01 0.5442493D+00 0.7868272D+01
EXPONENTS  0.1881289D+01 0.5442493D+00 0.7868272D+01 0.1881289D+01 0.5442493D+00
EXPONENTS  0.7868272D+01 0.1881289D+01 0.5442493D+00 0.1687145D+00 0.1687145D+00
EXPONENTS  0.1687145D+00 0.1687145D+00 0.8000000D+00 0.8000000D+00 0.8000000D+00
EXPONENTS  0.8000000D+00 0.8000000D+00 0.8000000D+00 0.1873114D+02 0.2825394D+01
EXPONENTS  0.6401217D+00 0.1612778D+00 0.3047525D+04 0.4573695D+03 0.1039487D+03
EXPONENTS  0.2921016D+02 0.9286663D+01 0.3163927D+01 0.7868272D+01 0.1881289D+01
EXPONENTS  0.5442493D+00 0.7868272D+01 0.1881289D+01 0.5442493D+00 0.7868272D+01
EXPONENTS  0.1881289D+01 0.5442493D+00 0.7868272D+01 0.1881289D+01 0.5442493D+00
EXPONENTS  0.1687145D+00 0.1687145D+00 0.1687145D+00 0.1687145D+00 0.8000000D+00
EXPONENTS  0.8000000D+00 0.8000000D+00 0.8000000D+00 0.8000000D+00 0.8000000D+00
EXPONENTS  0.3047525D+04 0.4573695D+03 0.1039487D+03 0.2921016D+02 0.9286663D+01
EXPONENTS  0.3163927D+01 0.7868272D+01 0.1881289D+01 0.5442493D+00 0.7868272D+01
EXPONENTS  0.1881289D+01 0.5442493D+00 0.7868272D+01 0.1881289D+01 0.5442493D+00
EXPONENTS  0.7868272D+01 0.1881289D+01 0.5442493D+00 0.1687145D+00 0.1687145D+00
EXPONENTS  0.1687145D+00 0.1687145D+00 0.8000000D+00 0.8000000D+00 0.8000000D+00
EXPONENTS  0.8000000D+00 0.8000000D+00 0.8000000D+00 0.3047525D+04 0.4573695D+03
EXPONENTS  0.1039487D+03 0.2921016D+02 0.9286663D+01 0.3163927D+01 0.7868272D+01
EXPONENTS  0.1881289D+01 0.5442493D+00 0.7868272D+01 0.1881289D+01 0.5442493D+00
EXPONENTS  0.7868272D+01 0.1881289D+01 0.5442493D+00 0.7868272D+01 0.1881289D+01
EXPONENTS  0.5442493D+00 0.1687145D+00 0.1687145D+00 0.1687145D+00 0.1687145D+00
EXPONENTS  0.8000000D+00 0.8000000D+00 0.8000000D+00 0.8000000D+00 0.8000000D+00
EXPONENTS  0.8000000D+00 0.3047525D+04 0.4573695D+03 0.1039487D+03 0.2921016D+02
EXPONENTS  0.9286663D+01 0.3163927D+01 0.7868272D+01 0.1881289D+01 0.5442493D+00
EXPONENTS  0.7868272D+01 0.1881289D+01 0.5442493D+00 0.7868272D+01 0.1881289D+01
EXPONENTS  0.5442493D+00 0.7868272D+01 0.1881289D+01 0.5442493D+00 0.1687145D+00
EXPONENTS  0.1687145D+00 0.1687145D+00 0.1687145D+00 0.8000000D+00 0.8000000D+00
EXPONENTS  0.8000000D+00 0.8000000D+00 0.8000000D+00 0.8000000D+00 0.3047525D+04
EXPONENTS  0.4573695D+03 0.1039487D+03 0.2921016D+02 0.9286663D+01 0.3163927D+01
EXPONENTS  0.7868272D+01 0.1881289D+01 0.5442493D+00 0.7868272D+01 0.1881289D+01
EXPONENTS  0.5442493D+00 0.7868272D+01 0.1881289D+01 0.5442493D+00 0.7868272D+01
EXPONENTS  0.1881289D+01 0.5442493D+00 0.1687145D+00 0.1687145D+00 0.1687145D+00
EXPONENTS  0.1687145D+00 0.8000000D+00 0.8000000D+00 0.8000000D+00 0.8000000D+00
EXPONENTS  0.8000000D+00 0.8000000D+00 0.1873114D+02 0.2825394D+01 0.6401217D+00
EXPONENTS  0.1612778D+00 0.1873114D+02 0.2825394D+01 0.6401217D+00 0.1612778D+00
EXPONENTS  0.1873114D+02 0.2825394D+01 0.6401217D+00 0.1612778D+00 0.1873114D+02
EXPONENTS  0.2825394D+01 0.6401217D+00 0.1612778D+00 0.1873114D+02 0.2825394D+01
EXPONENTS  0.6401217D+00 0.1612778D+00 0.1873114D+02 0.2825394D+01 0.6401217D+00
EXPONENTS  0.1612778D+00 0.1873114D+02 0.2825394D+01 0.6401217D+00 0.1612778D+00
EXPONENTS  0.1873114D+02 0.2825394D+01 0.6401217D+00 0.1612778D+00 0.1873114D+02
EXPONENTS  0.2825394D+01 0.6401217D+00 0.1612778D+00
MO    1     MO 0.0        OCC NO =    1.0000000  ORB. ENERGY =  -10.362589
  0.56858290D-02  0.10489244D-01  0.16932892D-01  0.22041595D-01  0.18808133D-01
  0.64939962D-02 -0.83899229D-05 -0.38669078D-05  0.10843213D-04  0.19354807D-03
  0.14840038D-03  0.74062192D-04 -0.36179302D-05 -0.27739994D-05 -0.13844201D-05
  0.20984749D-07  0.16089775D-07  0.80299252D-08  0.10838235D-02 -0.43812909D-03
  0.29232267D-05 -0.47753040D-07 -0.24097954D-03 -0.36435987D-03 -0.28292001D-03
  0.53134767D-06  0.93064464D-08  0.17233867D-08  0.18519797D+00  0.34165409D+00
  0.55153563D+00  0.71793552D+00  0.61261568D+00  0.21152147D+00 -0.69548433D-02
 -0.32054809D-02  0.89885032D-02  0.95901479D-04  0.73531171D-04  0.36697208D-04
  0.77204683D-04  0.59195654D-04  0.29542780D-04  0.93758163D-08  0.71887812D-08
  0.35877057D-08 -0.14400183D-02  0.18629427D-03 -0.33495646D-03  0.24052089D-07
 -0.38671040D-02 -0.37417501D-02 -0.37656301D-02  0.58840222D-04 -0.22912233D-07
  0.52545573D-08  0.18629104D+00  0.34367059D+00  0.55479089D+00  0.72217290D+00
  0.61623144D+00  0.21276991D+00 -0.69021266D-02 -0.31811838D-02  0.89203715D-02
 -0.25509113D-03 -0.19558770D-03 -0.97611971D-04 -0.25296089D-04 -0.19395436D-04
 -0.96796820D-05 -0.26374925D-07 -0.20222620D-07 -0.10092505D-07 -0.63565752D-03
  0.64575572D-03  0.33965489D-03  0.64882857D-07 -0.36723018D-02 -0.36742171D-02
 -0.37578739D-02  0.23682444D-04  0.18623492D-07  0.82771329D-09  0.11387670D-01
  0.21008027D-01  0.33913469D-01  0.44145260D-01  0.37669230D-01  0.13006280D-01
 -0.26994402D-03 -0.12441695D-03  0.34887812D-03 -0.17010196D-03 -0.13042339D-03
 -0.65090413D-04 -0.34794663D-05 -0.26678341D-05 -0.13314362D-05 -0.17721877D-07
 -0.13588011D-07 -0.67813697D-08  0.11678392D-02 -0.57591879D-03  0.14098899D-05
 -0.59245987D-07 -0.45712624D-03 -0.51043385D-03 -0.37588572D-03 -0.17160100D-05
 -0.16044389D-07  0.25182866D-08  0.19223678D+00  0.35463933D+00  0.57249784D+00
  0.74522208D+00  0.63589935D+00  0.21956076D+00 -0.71229380D-02 -0.32829556D-02
  0.92057503D-02 -0.26019249D-03 -0.19949910D-03 -0.99564032D-04  0.24280975D-04
  0.18617111D-04  0.92912433D-05 -0.25352941D-07 -0.19439027D-07 -0.97014370D-08
 -0.65905893D-03  0.65055572D-03 -0.34344941D-03  0.70722846D-07 -0.37908348D-02
 -0.37927292D-02 -0.38774368D-02 -0.24387834D-04  0.19742570D-07 -0.48931095D-08
  0.19115038D+00  0.35263512D+00  0.56926242D+00  0.74101053D+00  0.63230562D+00
  0.21831994D+00 -0.71778076D-02 -0.33082449D-02  0.92766642D-02  0.97825565D-04
  0.75006438D-04  0.37433470D-04 -0.81583144D-04 -0.62552780D-04 -0.31218221D-04
  0.11579698D-07  0.88785781D-08  0.44310327D-08 -0.14640205D-02  0.18567376D-03
  0.33968798D-03  0.16585393D-07 -0.39908454D-02 -0.38635600D-02 -0.38866753D-02
 -0.60551134D-04 -0.23181966D-07 -0.75279374D-08  0.78228519D-02  0.14431634D-01
  0.23297132D-01  0.30325944D-01  0.25877183D-01  0.89347694D-02 -0.18850155D-03
 -0.86880193D-04  0.24362113D-03 -0.88904613D-04 -0.68166418D-04 -0.34019820D-04
 -0.92153096D-04 -0.70657149D-04 -0.35262870D-04 -0.84228111D-08 -0.64580773D-08
 -0.32230332D-08  0.93899040D-03 -0.42796645D-04  0.39506041D-03 -0.76052110D-08
 -0.27352420D-03 -0.28748352D-03 -0.25446589D-03 -0.62301012D-04 -0.35390855D-08
 -0.60401237D-08 -0.11293975D-01 -0.20835179D-01 -0.33634439D-01 -0.43782046D-01
 -0.37359299D-01 -0.12899268D-01  0.26766044D-03  0.12336445D-03 -0.34592681D-03
 -0.16875426D-03 -0.12939006D-03 -0.64574710D-04  0.48147825D-05  0.36916699D-05
  0.18424020D-05 -0.17043544D-07 -0.13067909D-07 -0.65218023D-08 -0.11646085D-02
 -0.57630203D-03 -0.22671749D-05 -0.58854216D-07  0.45408782D-03  0.50660190D-03
  0.37284607D-03 -0.23151058D-05  0.15645638D-07 -0.27111914D-08 -0.18400429D+00
 -0.33945198D+00 -0.54798075D+00 -0.71330812D+00 -0.60866711D+00 -0.21015813D+00
  0.68176501D-02  0.31422487D-02 -0.88111934D-02 -0.25355834D-03 -0.19441245D-03
 -0.97025440D-04  0.25377695D-04  0.19458007D-04  0.97109091D-05 -0.26472830D-07
 -0.20297687D-07 -0.10129968D-07  0.62764169D-03  0.64371951D-03 -0.33908112D-03
  0.68316524D-07  0.36266537D-02  0.36289277D-02  0.37112844D-02  0.23128549D-04
 -0.16907395D-07  0.37476420D-08 -0.77100568D-02 -0.14223549D-01 -0.22961219D-01
 -0.29888684D-01 -0.25504069D-01 -0.88059420D-02  0.18523886D-03  0.85376424D-04
 -0.23940440D-03 -0.88288286D-04 -0.67693858D-04 -0.33783979D-04  0.90654657D-04
  0.69508241D-04  0.34689484D-04 -0.97137232D-08 -0.74478668D-08 -0.37170075D-08
 -0.93583600D-03 -0.43223025D-04 -0.39392507D-03 -0.16205103D-08  0.27041710D-03
  0.28363450D-03  0.25121463D-03 -0.60898200D-04  0.42995390D-08 -0.68934207D-08
 -0.18292579D+00 -0.33746236D+00 -0.54476888D+00 -0.70912722D+00 -0.60509954D+00
 -0.20892633D+00  0.68699549D-02  0.31663559D-02 -0.88787925D-02  0.95353300D-04
  0.73110862D-04  0.36487444D-04 -0.76079901D-04 -0.58333243D-04 -0.29112376D-04
  0.99121686D-08  0.76000222D-08  0.37929437D-08  0.14295289D-02  0.18611932D-03
  0.33301974D-03  0.15862937D-07  0.38200303D-02  0.36956916D-02  0.37191502D-02
  0.58218012D-04  0.19621891D-07  0.67877823D-08  0.38806575D-04  0.65823297D-04
  0.74937497D-04 -0.98940554D-05 -0.56424694D-02 -0.10409254D-01 -0.16803764D-01
 -0.21873508D-01 -0.18664704D-01 -0.64444737D-02  0.81151928D-05  0.37402849D-05
 -0.10488149D-04  0.19196256D-03  0.14718472D-03  0.73455488D-04  0.47281372D-05
  0.36252357D-05  0.18092467D-05  0.19162501D-07  0.14692590D-07  0.73326323D-08
 -0.10778391D-02 -0.43593229D-03 -0.36773345D-05 -0.43637518D-07  0.23916979D-03
  0.36143598D-03  0.28088400D-03  0.71387349D-06 -0.82033876D-08 -0.14425121D-08
 -0.19055945D+00 -0.35154498D+00 -0.56750260D+00 -0.73871977D+00 -0.63035092D+00
 -0.21764502D+00  0.71558339D-02  0.32981173D-02 -0.92482652D-02  0.97613978D-04
  0.74844207D-04  0.37352505D-04  0.81653406D-04  0.62606652D-04  0.31245107D-04
  0.88238884D-08  0.67655979D-08  0.33765075D-08  0.14599663D-02  0.18526547D-03
 -0.33871861D-03  0.21633292D-07  0.39785687D-02  0.38518878D-02  0.38744316D-02
 -0.60271730D-04  0.21870012D-07 -0.60826270D-08 -0.19159173D+00 -0.35344933D+00
 -0.57057681D+00 -0.74272147D+00 -0.63376558D+00 -0.21882402D+00  0.70993881D-02
  0.32721015D-02 -0.91753141D-02 -0.25964102D-03 -0.19907627D-03 -0.99353009D-04
 -0.23948132D-04 -0.18361909D-04 -0.91638794D-05 -0.24993163D-07 -0.19163172D-07
 -0.95637661D-08  0.65745380D-03  0.64959469D-03  0.34288978D-03  0.62046560D-07
  0.37782721D-02  0.37801007D-02  0.38640443D-02 -0.24477691D-04 -0.17145743D-07
 -0.16176888D-08 -0.80354881D-02 -0.14823906D-01 -0.23930381D-01 -0.31150246D-01
 -0.26580562D-01 -0.91776291D-02  0.19540256D-03  0.90060862D-04 -0.25254006D-03
 -0.91970257D-04 -0.70516960D-04 -0.35192905D-04 -0.95814906D-04 -0.73464793D-04
 -0.36664080D-04 -0.85069679D-08 -0.65226034D-08 -0.32552362D-08 -0.94872141D-03
 -0.40334308D-04  0.39914559D-03 -0.78863724D-08  0.28152016D-03  0.29661113D-03
  0.26019166D-03  0.63229478D-04  0.32665801D-08  0.57318884D-08  0.80673952D-02
  0.14882769D-01  0.24025404D-01  0.31273937D-01  0.26686107D-01  0.92140715D-02
 -0.19619306D-03 -0.90425203D-04  0.25356171D-03 -0.91950012D-04 -0.70501437D-04
 -0.35185158D-04  0.96253437D-04  0.73801030D-04  0.36831886D-04 -0.10917013D-07
 -0.83704732D-08 -0.41774528D-08  0.94996771D-03 -0.40267126D-04 -0.39971339D-03
  0.68290672D-09 -0.28243780D-03 -0.29759200D-03 -0.26127477D-03  0.63664180D-04
 -0.47425201D-08  0.73634663D-08  0.39087252D-05  0.66299378D-05  0.75479499D-05
  0.77036207D-04 -0.39224775D-05 -0.66532643D-05 -0.75745063D-05 -0.76885383D-04
  0.40646197D-05  0.68943644D-05  0.78489902D-05  0.77169116D-04  0.66121930D-05
  0.11215531D-04  0.12768485D-04  0.11502116D-03 -0.39214913D-04 -0.66515915D-04
 -0.75726018D-04  0.10756625D-04 -0.40289873D-04 -0.68339251D-04 -0.77801822D-04
  0.12760797D-04 -0.41515317D-05 -0.70417836D-05 -0.80168217D-05 -0.77045357D-04
 -0.66135653D-05 -0.11217858D-04 -0.12771135D-04 -0.11442073D-03  0.40161108D-04
  0.68120841D-04  0.77553169D-04 -0.12609246D-04
MO    2     MO 0.0        OCC NO =    1.0000000  ORB. ENERGY =  -10.362588
  0.56684052D-02  0.10457101D-01  0.16881003D-01  0.21974050D-01  0.18750497D-01
  0.64740959D-02 -0.35532514D-04 -0.16376903D-04  0.45922546D-04  0.20686936D-03
  0.15861431D-03  0.79159656D-04 -0.38501833D-05 -0.29520764D-05 -0.14732930D-05
  0.22560599D-07  0.17298036D-07  0.86329323D-08  0.79202682D-03 -0.29174931D-03
  0.25036495D-05 -0.31767292D-07 -0.23776565D-03 -0.38318694D-03 -0.26665059D-03
  0.63073328D-06  0.63048795D-08  0.25831543D-08  0.18421633D+00  0.33984316D+00
  0.54861224D+00  0.71413013D+00  0.60936853D+00  0.21040031D+00 -0.68777540D-02
 -0.31699506D-02  0.88888722D-02  0.45144912D-04  0.34614255D-04  0.17274939D-04
  0.67631714D-04  0.51855709D-04  0.25879633D-04  0.43024956D-08  0.32988807D-08
  0.16463727D-08 -0.95468353D-03  0.42922442D-04 -0.19279256D-03  0.68214579D-08
 -0.38143802D-02 -0.37114497D-02 -0.37764690D-02  0.58743622D-04 -0.90665400D-08
  0.42217296D-08  0.18456255D+00  0.34048187D+00  0.54964330D+00  0.71547227D+00
  0.61051378D+00  0.21079574D+00 -0.67967553D-02 -0.31326183D-02  0.87841888D-02
 -0.13559113D-03 -0.10396268D-03 -0.51884663D-04 -0.18036427D-04 -0.13829188D-04
 -0.69017341D-05 -0.13531894D-07 -0.10375398D-07 -0.51780507D-08 -0.58363974D-03
  0.19578956D-03  0.80024029D-04  0.19492529D-07 -0.36673573D-02 -0.36477406D-02
 -0.37794474D-02  0.28517657D-04  0.23663224D-07  0.39172868D-09  0.11974424D-01
  0.22090474D-01  0.35660874D-01  0.46419862D-01  0.39610153D-01  0.13676434D-01
 -0.29229099D-03 -0.13471665D-03  0.37775955D-03 -0.17155499D-03 -0.13153749D-03
 -0.65646424D-04 -0.49125861D-05 -0.37666594D-05 -0.18798270D-05 -0.18799278D-07
 -0.14414094D-07 -0.71936433D-08  0.39416993D-03  0.43761002D-04  0.33716720D-05
  0.54050842D-08 -0.38768603D-03 -0.48907986D-03 -0.38830557D-03 -0.21636455D-05
  0.49895844D-09  0.24809394D-08  0.19022960D+00  0.35093646D+00  0.56652026D+00
  0.73744105D+00  0.62925978D+00  0.21726828D+00 -0.70070793D-02 -0.32295564D-02
  0.90560134D-02 -0.13853975D-03 -0.10622349D-03 -0.53012967D-04  0.16496070D-04
  0.12648140D-04  0.63123083D-05 -0.12823171D-07 -0.98319940D-08 -0.49068541D-08
 -0.60600342D-03  0.19926431D-03 -0.79185441D-04  0.20776671D-07 -0.37817369D-02
 -0.37603813D-02 -0.38941487D-02 -0.31083466D-04  0.24018894D-07 -0.56657367D-08
  0.18993183D+00  0.35038713D+00  0.56563347D+00  0.73628671D+00  0.62827479D+00
  0.21692819D+00 -0.70915546D-02 -0.32684911D-02  0.91651901D-02  0.46228524D-04
  0.35445100D-04  0.17689589D-04 -0.71653243D-04 -0.54939162D-04 -0.27418492D-04
  0.62276684D-08  0.47749812D-08  0.23830503D-08 -0.97612165D-03  0.42024488D-04
  0.19577185D-03  0.24994182D-08 -0.39326699D-02 -0.38283915D-02 -0.38929218D-02
 -0.59785217D-04 -0.86978910D-08 -0.80716550D-08  0.91116001D-02  0.16809123D-01
  0.27135136D-01  0.35321885D-01  0.30140228D-01  0.10406697D-01 -0.25450814D-03
 -0.11730257D-03  0.32892865D-03 -0.36349703D-04 -0.27870647D-04 -0.13909406D-04
 -0.12106194D-03 -0.92822616D-04 -0.46324991D-04 -0.29719444D-08 -0.22786985D-08
 -0.11372303D-08  0.28022995D-03  0.31836176D-04  0.10836625D-03  0.26252779D-08
 -0.25299623D-03 -0.30294558D-03 -0.27363650D-03 -0.11572520D-03  0.52428792D-08
 -0.10968422D-07  0.12058251D-01  0.22245119D-01  0.35910519D-01  0.46744825D-01
  0.39887444D-01  0.13772176D-01 -0.29428216D-03 -0.13563438D-03  0.38033296D-03
  0.17281213D-03  0.13250138D-03  0.66127476D-04 -0.67314548D-05 -0.51612526D-05
 -0.25758268D-05  0.17762090D-07  0.13618844D-07  0.67967577D-08  0.40274383D-03
 -0.39407723D-04  0.41425069D-05 -0.45296801D-08 -0.39104704D-03 -0.49282909D-03
 -0.39106757D-03  0.30500596D-05  0.22289995D-10  0.14786701D-08  0.18446868D+00
  0.34030869D+00  0.54936375D+00  0.71510837D+00  0.61020327D+00  0.21068852D+00
 -0.67931408D-02 -0.31309524D-02  0.87795174D-02  0.13628883D-03  0.10449763D-03
  0.52151642D-04 -0.18499737D-04 -0.14184425D-04 -0.70790223D-05  0.13826450D-07
  0.10601245D-07  0.52907642D-08 -0.58245634D-03 -0.19948598D-03  0.81770757D-04
 -0.20600067D-07 -0.36651555D-02 -0.36456034D-02 -0.37776379D-02 -0.28470522D-04
  0.22989255D-07 -0.48740708D-08  0.91073632D-02  0.16801307D-01  0.27122519D-01
  0.35305460D-01  0.30126213D-01  0.10401857D-01 -0.25395305D-03 -0.11704673D-03
  0.32821125D-03  0.36277166D-04  0.27815030D-04  0.13881649D-04 -0.12072894D-03
 -0.92567292D-04 -0.46197566D-04  0.45306470D-08  0.34738128D-08  0.17336760D-08
  0.28465126D-03 -0.30927496D-04  0.11024215D-03 -0.41241579D-08 -0.25283660D-03
 -0.30255492D-03 -0.27380110D-03  0.11577702D-03  0.35664276D-08  0.12280426D-07
  0.18412802D+00  0.33968025D+00  0.54834925D+00  0.71378779D+00  0.60907642D+00
  0.21029945D+00 -0.68745980D-02 -0.31684959D-02  0.88847933D-02 -0.45388209D-04
 -0.34800800D-04 -0.17368038D-04  0.67130557D-04  0.51471453D-04  0.25687862D-04
 -0.46938130D-08 -0.35989181D-08 -0.17961124D-08 -0.95965685D-03 -0.44505953D-04
 -0.19419863D-03 -0.30857501D-08 -0.38126667D-02 -0.37092710D-02 -0.37746521D-02
 -0.58776919D-04 -0.74065505D-08 -0.74202685D-08 -0.34770717D-04 -0.58977716D-04
 -0.67144046D-04  0.63179332D-04  0.57112813D-02  0.10536199D-01  0.17008692D-01
  0.22140263D-01  0.18892326D-01  0.65230663D-02 -0.35595029D-04 -0.16405716D-04
  0.46003341D-04 -0.20832721D-03 -0.15973209D-03 -0.79717510D-04 -0.57009853D-05
 -0.43711540D-05 -0.21815122D-05 -0.20875048D-07 -0.16005663D-07 -0.79879476D-08
  0.80024916D-03  0.29507646D-03  0.39682458D-05  0.29644688D-07 -0.23959153D-03
 -0.38594381D-03 -0.26878656D-03 -0.91059504D-06  0.59531556D-08  0.18508236D-08
  0.19285692D+00  0.35578336D+00  0.57434465D+00  0.74762609D+00  0.63795069D+00
  0.22026904D+00 -0.72012674D-02 -0.33190576D-02  0.93069838D-02 -0.47375029D-04
 -0.36324167D-04 -0.18128305D-04 -0.73360933D-04 -0.56248510D-04 -0.28071949D-04
 -0.39670332D-08 -0.30416695D-08 -0.15180062D-08 -0.99319580D-03 -0.43290691D-04
  0.19949466D-03 -0.62469571D-08 -0.39935407D-02 -0.38878598D-02 -0.39523877D-02
  0.60656560D-04 -0.92185350D-08  0.52836488D-08  0.19311212D+00  0.35625416D+00
  0.57510468D+00  0.74861541D+00  0.63879489D+00  0.22056052D+00 -0.71139795D-02
 -0.32788267D-02  0.91941722D-02  0.14172072D-03  0.10866246D-03  0.54230183D-04
  0.16420762D-04  0.12590399D-04  0.62834915D-05  0.13130103D-07  0.10067331D-07
  0.50243035D-08 -0.61641755D-03 -0.20529476D-03 -0.82630604D-04 -0.19363636D-07
 -0.38389731D-02 -0.38175666D-02 -0.39522420D-02  0.31487693D-04  0.22516545D-07
  0.54307606D-09  0.95224865D-02  0.17567128D-01  0.28358792D-01  0.36914721D-01
  0.31499398D-01  0.10875985D-01 -0.26669840D-03 -0.12292105D-03  0.34468345D-03
  0.39778395D-04  0.30499550D-04  0.15221413D-04  0.12636999D-03  0.96892489D-04
  0.48356143D-04  0.30077687D-08  0.23061663D-08  0.11509386D-08  0.29555480D-03
 -0.33091970D-04 -0.11379398D-03 -0.25407968D-08 -0.26458984D-03 -0.31760229D-03
 -0.28497790D-03 -0.12040452D-03  0.51306527D-08 -0.11418431D-07  0.94012455D-02
  0.17343462D-01  0.27997726D-01  0.36444720D-01  0.31098346D-01  0.10737511D-01
 -0.26331931D-03 -0.12136363D-03  0.34031629D-03 -0.38368263D-04 -0.29418351D-04
 -0.14681819D-04  0.12466644D-03  0.95586323D-04  0.47704274D-04 -0.58718980D-08
 -0.45021989D-08 -0.22469128D-08  0.28592170D-03  0.32789851D-04 -0.10976059D-03
  0.49801679D-08 -0.26034746D-03 -0.31291601D-03 -0.28134155D-03  0.11954538D-03
  0.28975317D-08  0.12247013D-07 -0.66948975D-05 -0.11355813D-04 -0.12928192D-04
  0.17424762D-04 -0.67083232D-05 -0.11378586D-04 -0.12954118D-04  0.17960025D-04
 -0.64207396D-05 -0.10890790D-04 -0.12398779D-04  0.17502470D-04 -0.57207278D-09
 -0.97034372D-09 -0.11047020D-08  0.79467960D-04 -0.34739948D-04 -0.58925527D-04
 -0.67084630D-04  0.63620110D-04 -0.35672229D-04 -0.60506851D-04 -0.68884912D-04
  0.66154533D-04 -0.63483340D-05 -0.10767976D-04 -0.12258960D-04  0.18109519D-04
  0.50208241D-07  0.85162679D-07  0.96954700D-07  0.80340062D-04 -0.36241666D-04
 -0.61472724D-04 -0.69984524D-04  0.66760287D-04
MO    3     MO 0.0        OCC NO =    1.0000000  ORB. ENERGY =  -10.362584