 Generated by Multiwfn
GAUSSIAN             53 MOL ORBITALS    488 PRIMITIVES       26 NUCLEI
  C    1    (CENTRE  1)   6.63326567 -0.00000011  0.00069716  CHARGE =  6.0
  C    2    (CENTRE  2)   5.33354140 -2.27863867  0.00058096  CHARGE =  6.0
  C    3    (CENTRE  3)   2.69065278 -2.32713581  0.00029680  CHARGE =  6.0
  C    4    (CENTRE  4)   1.34325296 -0.00000009  0.00013245  CHARGE =  6.0
  C    5    (CENTRE  5)   2.69065303  2.32713764  0.00024718  CHARGE =  6.0
  C    6    (CENTRE  6)   5.33353685  2.27864077  0.00053014  CHARGE =  6.0
  C    7    (CENTRE  7)   1.28047867 -4.63917879  0.00016885  CHARGE =  6.0
  C    8    (CENTRE  8)  -1.34325290 -0.00000006 -0.00014307  CHARGE =  6.0
  C    9    (CENTRE  9)  -2.69064987 -2.32713639 -0.00025948  CHARGE =  6.0
  C   10    (CENTRE 10)  -1.28047453 -4.63917937 -0.00009700  CHARGE =  6.0
  C   11    (CENTRE 11)  -5.33353913 -2.27864069 -0.00052546  CHARGE =  6.0
  H   12    (CENTRE 12)  -6.36353807 -4.04626132 -0.00061102  CHARGE =  1.0
  C   13    (CENTRE 13)  -6.63326612 -0.00000444 -0.00067391  CHARGE =  6.0
  C   14    (CENTRE 14)  -5.33353909  2.27863837 -0.00056276  CHARGE =  6.0
  C   15    (CENTRE 15)  -2.69065575  2.32713679 -0.00029769  CHARGE =  6.0
  C   16    (CENTRE 16)  -1.28047701  4.63918073 -0.00017820  CHARGE =  6.0
  C   17    (CENTRE 17)   1.28047359  4.63918111  0.00007857  CHARGE =  6.0
  H   18    (CENTRE 18)   2.31304440  6.40568523  0.00015118  CHARGE =  1.0
  H   19    (CENTRE 19)  -2.31305100  6.40568353 -0.00029340  CHARGE =  1.0
  H   20    (CENTRE 20)   2.31304678 -6.40568455  0.00028824  CHARGE =  1.0
  H   21    (CENTRE 21)   8.67778290  0.00000282  0.00091795  CHARGE =  1.0
  H   22    (CENTRE 22)   6.36354175 -4.04625811  0.00071502  CHARGE =  1.0
  H   23    (CENTRE 23)   6.36354636  4.04625489  0.00061838  CHARGE =  1.0
  H   24    (CENTRE 24)  -2.31304807 -6.40568196 -0.00019343  CHARGE =  1.0
  H   25    (CENTRE 25)  -8.67778324 -0.00000119 -0.00088010  CHARGE =  1.0
  H   26    (CENTRE 26)  -6.36354534  4.04625470 -0.00068011  CHARGE =  1.0
CENTRE ASSIGNMENTS    1  1  1  1  1  1  1  1  1  1  1  1  1  1  1  1  1  1  1  1
CENTRE ASSIGNMENTS    1  1  1  1  1  1  1  1  2  2  2  2  2  2  2  2  2  2  2  2
CENTRE ASSIGNMENTS    2  2  2  2  2  2  2  2  2  2  2  2  2  2  2  2  3  3  3  3
CENTRE ASSIGNMENTS    3  3  3  3  3  3  3  3  3  3  3  3  3  3  3  3  3  3  3  3
CENTRE ASSIGNMENTS    3  3  3  3  4  4  4  4  4  4  4  4  4  4  4  4  4  4  4  4
CENTRE ASSIGNMENTS    4  4  4  4  4  4  4  4  4  4  4  4  5  5  5  5  5  5  5  5
CENTRE ASSIGNMENTS    5  5  5  5  5  5  5  5  5  5  5  5  5  5  5  5  5  5  5  5
CENTRE ASSIGNMENTS    6  6  6  6  6  6  6  6  6  6  6  6  6  6  6  6  6  6  6  6
CENTRE ASSIGNMENTS    6  6  6  6  6  6  6  6  7  7  7  7  7  7  7  7  7  7  7  7
CENTRE ASSIGNMENTS    7  7  7  7  7  7  7  7  7  7  7  7  7  7  7  7  8  8  8  8
CENTRE ASSIGNMENTS    8  8  8  8  8  8  8  8  8  8  8  8  8  8  8  8  8  8  8  8
CENTRE ASSIGNMENTS    8  8  8  8  9  9  9  9  9  9  9  9  9  9  9  9  9  9  9  9
CENTRE ASSIGNMENTS    9  9  9  9  9  9  9  9  9  9  9  9 10 10 10 10 10 10 10 10
CENTRE ASSIGNMENTS   10 10 10 10 10 10 10 10 10 10 10 10 10 10 10 10 10 10 10 10
CENTRE ASSIGNMENTS   11 11 11 11 11 11 11 11 11 11 11 11 11 11 11 11 11 11 11 11
CENTRE ASSIGNMENTS   11 11 11 11 11 11 11 11 12 12 12 12 13 13 13 13 13 13 13 13
CENTRE ASSIGNMENTS   13 13 13 13 13 13 13 13 13 13 13 13 13 13 13 13 13 13 13 13
CENTRE ASSIGNMENTS   14 14 14 14 14 14 14 14 14 14 14 14 14 14 14 14 14 14 14 14
CENTRE ASSIGNMENTS   14 14 14 14 14 14 14 14 15 15 15 15 15 15 15 15 15 15 15 15
CENTRE ASSIGNMENTS   15 15 15 15 15 15 15 15 15 15 15 15 15 15 15 15 16 16 16 16
CENTRE ASSIGNMENTS   16 16 16 16 16 16 16 16 16 16 16 16 16 16 16 16 16 16 16 16
CENTRE ASSIGNMENTS   16 16 16 16 17 17 17 17 17 17 17 17 17 17 17 17 17 17 17 17
CENTRE ASSIGNMENTS   17 17 17 17 17 17 17 17 17 17 17 17 18 18 18 18 19 19 19 19
CENTRE ASSIGNMENTS   20 20 20 20 21 21 21 21 22 22 22 22 23 23 23 23 24 24 24 24
CENTRE ASSIGNMENTS   25 25 25 25 26 26 26 26
TYPE ASSIGNMENTS      1  1  1  1  1  1  1  1  1  2  2  2  3  3  3  4  4  4  1  2
TYPE ASSIGNMENTS      3  4  5  6  7  8  9 10  1  1  1  1  1  1  1  1  1  2  2  2
TYPE ASSIGNMENTS      3  3  3  4  4  4  1  2  3  4  5  6  7  8  9 10  1  1  1  1
TYPE ASSIGNMENTS      1  1  1  1  1  2  2  2  3  3  3  4  4  4  1  2  3  4  5  6
TYPE ASSIGNMENTS      7  8  9 10  1  1  1  1  1  1  1  1  1  2  2  2  3  3  3  4
TYPE ASSIGNMENTS      4  4  1  2  3  4  5  6  7  8  9 10  1  1  1  1  1  1  1  1
TYPE ASSIGNMENTS      1  2  2  2  3  3  3  4  4  4  1  2  3  4  5  6  7  8  9 10
TYPE ASSIGNMENTS      1  1  1  1  1  1  1  1  1  2  2  2  3  3  3  4  4  4  1  2
TYPE ASSIGNMENTS      3  4  5  6  7  8  9 10  1  1  1  1  1  1  1  1  1  2  2  2
TYPE ASSIGNMENTS      3  3  3  4  4  4  1  2  3  4  5  6  7  8  9 10  1  1  1  1
TYPE ASSIGNMENTS      1  1  1  1  1  2  2  2  3  3  3  4  4  4  1  2  3  4  5  6
TYPE ASSIGNMENTS      7  8  9 10  1  1  1  1  1  1  1  1  1  2  2  2  3  3  3  4
TYPE ASSIGNMENTS      4  4  1  2  3  4  5  6  7  8  9 10  1  1  1  1  1  1  1  1
TYPE ASSIGNMENTS      1  2  2  2  3  3  3  4  4  4  1  2  3  4  5  6  7  8  9 10
TYPE ASSIGNMENTS      1  1  1  1  1  1  1  1  1  2  2  2  3  3  3  4  4  4  1  2
TYPE ASSIGNMENTS      3  4  5  6  7  8  9 10  1  1  1  1  1  1  1  1  1  1  1  1
TYPE ASSIGNMENTS      1  2  2  2  3  3  3  4  4  4  1  2  3  4  5  6  7  8  9 10
TYPE ASSIGNMENTS      1  1  1  1  1  1  1  1  1  2  2  2  3  3  3  4  4  4  1  2
TYPE ASSIGNMENTS      3  4  5  6  7  8  9 10  1  1  1  1  1  1  1  1  1  2  2  2
TYPE ASSIGNMENTS      3  3  3  4  4  4  1  2  3  4  5  6  7  8  9 10  1  1  1  1
TYPE ASSIGNMENTS      1  1  1  1  1  2  2  2  3  3  3  4  4  4  1  2  3  4  5  6
TYPE ASSIGNMENTS      7  8  9 10  1  1  1  1  1  1  1  1  1  2  2  2  3  3  3  4
TYPE ASSIGNMENTS      4  4  1  2  3  4  5  6  7  8  9 10  1  1  1  1  1  1  1  1
TYPE ASSIGNMENTS      1  1  1  1  1  1  1  1  1  1  1  1  1  1  1  1  1  1  1  1
TYPE ASSIGNMENTS      1  1  1  1  1  1  1  1
EXPONENTS  0.3047525D+04 0.4573695D+03 0.1039487D+03 0.2921016D+02 0.9286663D+01
EXPONENTS  0.3163927D+01 0.7868272D+01 0.1881289D+01 0.5442493D+00 0.7868272D+01
EXPONENTS  0.1881289D+01 0.5442493D+00 0.7868272D+01 0.1881289D+01 0.5442493D+00
EXPONENTS  0.7868272D+01 0.1881289D+01 0.5442493D+00 0.1687145D+00 0.1687145D+00
EXPONENTS  0.1687145D+00 0.1687145D+00 0.8000000D+00 0.8000000D+00 0.8000000D+00
EXPONENTS  0.8000000D+00 0.8000000D+00 0.8000000D+00 0.3047525D+04 0.4573695D+03
EXPONENTS  0.1039487D+03 0.2921016D+02 0.9286663D+01 0.3163927D+01 0.7868272D+01
EXPONENTS  0.1881289D+01 0.5442493D+00 0.7868272D+01 0.1881289D+01 0.5442493D+00
EXPONENTS  0.7868272D+01 0.1881289D+01 0.5442493D+00 0.7868272D+01 0.1881289D+01
EXPONENTS  0.5442493D+00 0.1687145D+00 0.1687145D+00 0.1687145D+00 0.1687145D+00
EXPONENTS  0.8000000D+00 0.8000000D+00 0.8000000D+00 0.8000000D+00 0.8000000D+00
EXPONENTS  0.8000000D+00 0.3047525D+04 0.4573695D+03 0.1039487D+03 0.2921016D+02
EXPONENTS  0.9286663D+01 0.3163927D+01 0.7868272D+01 0.1881289D+01 0.5442493D+00
EXPONENTS  0.7868272D+01 0.1881289D+01 0.5442493D+00 0.7868272D+01 0.1881289D+01
EXPONENTS  0.5442493D+00 0.7868272D+01 0.1881289D+01 0.5442493D+00 0.1687145D+00
EXPONENTS  0.1687145D+00 0.1687145D+00 0.1687145D+00 0.8000000D+00 0.8000000D+00
EXPONENTS  0.8000000D+00 0.8000000D+00 0.8000000D+00 0.8000000D+00 0.3047525D+04
EXPONENTS  0.4573695D+03 0.1039487D+03 0.2921016D+02 0.9286663D+01 0.3163927D+01
EXPONENTS  0.7868272D+01 0.1881289D+01 0.5442493D+00 0.7868272D+01 0.1881289D+01
EXPONENTS  0.5442493D+00 0.7868272D+01 0.1881289D+01 0.5442493D+00 0.7868272D+01
EXPONENTS  0.1881289D+01 0.5442493D+00 0.1687145D+00 0.1687145D+00 0.1687145D+00
EXPONENTS  0.1687145D+00 0.8000000D+00 0.8000000D+00 0.8000000D+00 0.8000000D+00
EXPONENTS  0.8000000D+00 0.8000000D+00 0.3047525D+04 0.4573695D+03 0.1039487D+03
EXPONENTS  0.2921016D+02 0.9286663D+01 0.3163927D+01 0.7868272D+01 0.1881289D+01
EXPONENTS  0.5442493D+00 0.7868272D+01 0.1881289D+01 0.5442493D+00 0.7868272D+01
EXPONENTS  0.1881289D+01 0.5442493D+00 0.7868272D+01 0.1881289D+01 0.5442493D+00
EXPONENTS  0.1687145D+00 0.1687145D+00 0.1687145D+00 0.1687145D+00 0.8000000D+00
EXPONENTS  0.8000000D+00 0.8000000D+00 0.8000000D+00 0.8000000D+00 0.8000000D+00
EXPONENTS  0.3047525D+04 0.4573695D+03 0.1039487D+03 0.2921016D+02 0.9286663D+01
EXPONENTS  0.3163927D+01 0.7868272D+01 0.1881289D+01 0.5442493D+00 0.7868272D+01
EXPONENTS  0.1881289D+01 0.5442493D+00 0.7868272D+01 0.1881289D+01 0.5442493D+00
EXPONENTS  0.7868272D+01 0.1881289D+01 0.5442493D+00 0.1687145D+00 0.1687145D+00
EXPONENTS  0.1687145D+00 0.1687145D+00 0.8000000D+00 0.8000000D+00 0.8000000D+00
EXPONENTS  0.8000000D+00 0.8000000D+00 0.8000000D+00 0.3047525D+04 0.4573695D+03
EXPONENTS  0.1039487D+03 0.2921016D+02 0.9286663D+01 0.3163927D+01 0.7868272D+01
EXPONENTS  0.1881289D+01 0.5442493D+00 0.7868272D+01 0.1881289D+01 0.5442493D+00
EXPONENTS  0.7868272D+01 0.1881289D+01 0.5442493D+00 0.7868272D+01 0.1881289D+01
EXPONENTS  0.5442493D+00 0.1687145D+00 0.1687145D+00 0.1687145D+00 0.1687145D+00
EXPONENTS  0.8000000D+00 0.8000000D+00 0.8000000D+00 0.8000000D+00 0.8000000D+00
EXPONENTS  0.8000000D+00 0.3047525D+04 0.4573695D+03 0.1039487D+03 0.2921016D+02
EXPONENTS  0.9286663D+01 0.3163927D+01 0.7868272D+01 0.1881289D+01 0.5442493D+00
EXPONENTS  0.7868272D+01 0.1881289D+01 0.5442493D+00 0.7868272D+01 0.1881289D+01
EXPONENTS  0.5442493D+00 0.7868272D+01 0.1881289D+01 0.5442493D+00 0.1687145D+00
EXPONENTS  0.1687145D+00 0.1687145D+00 0.1687145D+00 0.8000000D+00 0.8000000D+00
EXPONENTS  0.8000000D+00 0.8000000D+00 0.8000000D+00 0.8000000D+00 0.3047525D+04
EXPONENTS  0.4573695D+03 0.1039487D+03 0.2921016D+02 0.9286663D+01 0.3163927D+01
EXPONENTS  0.7868272D+01 0.1881289D+01 0.5442493D+00 0.7868272D+01 0.1881289D+01
EXPONENTS  0.5442493D+00 0.7868272D+01 0.1881289D+01 0.5442493D+00 0.7868272D+01
EXPONENTS  0.1881289D+01 0.5442493D+00 0.1687145D+00 0.1687145D+00 0.1687145D+00
EXPONENTS  0.1687145D+00 0.8000000D+00 0.8000000D+00 0.8000000D+00 0.8000000D+00
EXPONENTS  0.8000000D+00 0.8000000D+00 0.3047525D+04 0.4573695D+03 0.1039487D+03
EXPONENTS  0.2921016D+02 0.9286663D+01 0.3163927D+01 0.7868272D+01 0.1881289D+01
EXPONENTS  0.5442493D+00 0.7868272D+01 0.1881289D+01 0.5442493D+00 0.7868272D+01
EXPONENTS  0.1881289D+01 0.5442493D+00 0.7868272D+01 0.1881289D+01 0.5442493D+00
EXPONENTS  0.1687145D+00 0.1687145D+00 0.1687145D+00 0.1687145D+00 0.8000000D+00
EXPONENTS  0.8000000D+00 0.8000000D+00 0.8000000D+00 0.8000000D+00 0.8000000D+00
EXPONENTS  0.3047525D+04 0.4573695D+03 0.1039487D+03 0.2921016D+02 0.9286663D+01
EXPONENTS  0.3163927D+01 0.7868272D+01 0.1881289D+01 0.5442493D+00 0.7868272D+01
EXPONENTS  0.1881289D+01 0.5442493D+00 0.7868272D+01 0.1881289D+01 0.5442493D+00
EXPONENTS  0.7868272D+01 0.1881289D+01 0.5442493D+00 0.1687145D+00 0.1687145D+00
EXPONENTS  0.1687145D+00 0.1687145D+00 0.8000000D+00 0.8000000D+00 0.8000000D+00
EXPONENTS  0.8000000D+00 0.8000000D+00 0.8000000D+00 0.1873114D+02 0.2825394D+01
EXPONENTS  0.6401217D+00 0.1612778D+00 0.3047525D+04 0.4573695D+03 0.1039487D+03
EXPONENTS  0.2921016D+02 0.9286663D+01 0.3163927D+01 0.7868272D+01 0.1881289D+01
EXPONENTS  0.5442493D+00 0.7868272D+01 0.1881289D+01 0.5442493D+00 0.7868272D+01
EXPONENTS  0.1881289D+01 0.5442493D+00 0.7868272D+01 0.1881289D+01 0.5442493D+00
EXPONENTS  0.1687145D+00 0.1687145D+00 0.1687145D+00 0.1687145D+00 0.8000000D+00
EXPONENTS  0.8000000D+00 0.8000000D+00 0.8000000D+00 0.8000000D+00 0.8000000D+00
EXPONENTS  0.3047525D+04 0.4573695D+03 0.1039487D+03 0.2921016D+02 0.9286663D+01
EXPONENTS  0.3163927D+01 0.7868272D+01 0.1881289D+01 0.5442493D+00 0.7868272D+01
EXPONENTS  0.1881289D+01 0.5442493D+00 0.7868272D+01 0.1881289D+01 0.5442493D+00
EXPONENTS  0.7868272D+01 0.1881289D+01 0.5442493D+00 0.1687145D+00 0.1687145D+00
EXPONENTS  0.1687145D+00 0.1687145D+00 0.8000000D+00 0.8000000D+00 0.8000000D+00
EXPONENTS  0.8000000D+00 0.8000000D+00 0.8000000D+00 0.3047525D+04 0.4573695D+03
EXPONENTS  0.1039487D+03 0.2921016D+02 0.9286663D+01 0.3163927D+01 0.7868272D+01
EXPONENTS  0.1881289D+01 0.5442493D+00 0.7868272D+01 0.1881289D+01 0.5442493D+00
EXPONENTS  0.7868272D+01 0.1881289D+01 0.5442493D+00 0.7868272D+01 0.1881289D+01
EXPONENTS  0.5442493D+00 0.1687145D+00 0.1687145D+00 0.1687145D+00 0.1687145D+00
EXPONENTS  0.8000000D+00 0.8000000D+00 0.8000000D+00 0.8000000D+00 0.8000000D+00
EXPONENTS  0.8000000D+00 0.3047525D+04 0.4573695D+03 0.1039487D+03 0.2921016D+02
EXPONENTS  0.9286663D+01 0.3163927D+01 0.7868272D+01 0.1881289D+01 0.5442493D+00
EXPONENTS  0.7868272D+01 0.1881289D+01 0.5442493D+00 0.7868272D+01 0.1881289D+01
EXPONENTS  0.5442493D+00 0.7868272D+01 0.1881289D+01 0.5442493D+00 0.1687145D+00
EXPONENTS  0.1687145D+00 0.1687145D+00 0.1687145D+00 0.8000000D+00 0.8000000D+00
EXPONENTS  0.8000000D+00 0.8000000D+00 0.8000000D+00 0.8000000D+00 0.3047525D+04
EXPONENTS  0.4573695D+03 0.1039487D+03 0.2921016D+02 0.9286663D+01 0.3163927D+01
EXPONENTS  0.7868272D+01 0.1881289D+01 0.5442493D+00 0.7868272D+01 0.1881289D+01
EXPONENTS  0.5442493D+00 0.7868272D+01 0.1881289D+01 0.5442493D+00 0.7868272D+01
EXPONENTS  0.1881289D+01 0.5442493D+00 0.1687145D+00 0.1687145D+00 0.1687145D+00
EXPONENTS  0.1687145D+00 0.8000000D+00 0.8000000D+00 0.8000000D+00 0.8000000D+00
EXPONENTS  0.8000000D+00 0.8000000D+00 0.1873114D+02 0.2825394D+01 0.6401217D+00
EXPONENTS  0.1612778D+00 0.1873114D+02 0.2825394D+01 0.6401217D+00 0.1612778D+00
EXPONENTS  0.1873114D+02 0.2825394D+01 0.6401217D+00 0.1612778D+00 0.1873114D+02
EXPONENTS  0.2825394D+01 0.6401217D+00 0.1612778D+00 0.1873114D+02 0.2825394D+01
EXPONENTS  0.6401217D+00 0.1612778D+00 0.1873114D+02 0.2825394D+01 0.6401217D+00
EXPONENTS  0.1612778D+00 0.1873114D+02 0.2825394D+01 0.6401217D+00 0.1612778D+00
EXPONENTS  0.1873114D+02 0.2825394D+01 0.6401217D+00 0.1612778D+00 0.1873114D+02
EXPONENTS  0.2825394D+01 0.6401217D+00 0.1612778D+00
MO    1     MO 0.0        OCC NO =    2.0000000  ORB. ENERGY =  -10.195362
  0.72339898D-03  0.13345299D-02  0.21543450D-02  0.28043170D-02  0.23929288D-02
  0.82622082D-03 -0.42676320D-04 -0.19669477D-04  0.55155266D-04  0.37742006D-04
  0.28938177D-04  0.14442178D-04 -0.70051126D-08 -0.53710760D-08 -0.26805434D-08
  0.42900071D-08  0.32893054D-08  0.16415939D-08 -0.55228496D-03  0.26550646D-03
  0.14644941D-08  0.28529795D-07  0.49701518D-04  0.27472493D-04  0.35003162D-05
 -0.70914358D-08  0.97251776D-08 -0.79875287D-09  0.88888448D-02  0.16398183D-01
  0.26471752D-01  0.34458356D-01  0.29403377D-01  0.10152280D-01 -0.17876625D-03
 -0.82393203D-04  0.23103914D-03  0.22467967D-03  0.17227012D-03  0.85974865D-04
 -0.44008207D-04 -0.33742702D-04 -0.16839973D-04  0.24779568D-07  0.18999401D-07
  0.94820326D-08  0.89498777D-03 -0.27811961D-03  0.25212913D-03 -0.32450422D-07
 -0.40793408D-03 -0.29097786D-03 -0.32142046D-03 -0.22126758D-04 -0.19189974D-07
 -0.30234841D-08  0.25554396D+00  0.47142871D+00  0.76103211D+00  0.99063768D+00
  0.84531293D+00  0.29186624D+00 -0.95434866D-02 -0.43985843D-02  0.12334089D-01
  0.51881760D-04  0.39779643D-04  0.19852830D-04 -0.30097232D-04 -0.23076648D-04
 -0.11516865D-04  0.67327682D-08  0.51622596D-08  0.25763293D-08 -0.18352405D-02
 -0.19209455D-03 -0.29441170D-03 -0.18611170D-07 -0.49039813D-02 -0.49802233D-02
 -0.51011900D-02  0.63691167D-04  0.41124526D-07  0.40939667D-08  0.10565559D+00
  0.19491393D+00  0.31465152D+00  0.40958279D+00  0.34949774D+00  0.12067317D+00
 -0.36984642D-02 -0.17046188D-02  0.47799289D-02 -0.19702190D-03 -0.15106389D-03
 -0.75391471D-04 -0.52745121D-07 -0.40441613D-07 -0.20183199D-07 -0.21337278D-07
 -0.16360071D-07 -0.81648223D-08  0.10260416D-02  0.41808186D-03 -0.29367131D-08
  0.44454436D-07 -0.23611022D-02 -0.24767078D-02 -0.23418037D-02 -0.21400425D-07
 -0.41260484D-08  0.33285115D-08  0.25560870D+00  0.47154815D+00  0.76122492D+00
  0.99088867D+00  0.84552709D+00  0.29194019D+00 -0.95459036D-02 -0.43996982D-02
  0.12337213D-01  0.51886046D-04  0.39782929D-04  0.19854470D-04  0.30078044D-04
  0.23061937D-04  0.11509523D-04  0.79839447D-08  0.61215824D-08  0.30550986D-08
 -0.18355345D-02 -0.19212941D-03  0.29443306D-03 -0.25490986D-07 -0.49052238D-02
 -0.49814762D-02 -0.51024838D-02 -0.63712413D-04  0.41659795D-07 -0.83509501D-08
  0.88912862D-02  0.16402687D-01  0.26479023D-01  0.34467820D-01  0.29411453D-01
  0.10155068D-01 -0.17883797D-03 -0.82426257D-04  0.23113183D-03  0.22473044D-03
  0.17230905D-03  0.85994292D-04  0.44014042D-04  0.33747175D-04  0.16842206D-04
  0.23523912D-07  0.18036644D-07  0.90015492D-08  0.89509211D-03 -0.27815939D-03
 -0.25213852D-03 -0.26268930D-07 -0.40804331D-03 -0.29105432D-03 -0.32148463D-03
  0.22132723D-04 -0.19849125D-07  0.13585831D-08  0.90583415D-02  0.16710871D-01
  0.26976528D-01  0.35115424D-01  0.29964055D-01  0.10345868D-01 -0.24276998D-03
 -0.11189246D-03  0.31375815D-03 -0.78705183D-04 -0.60346142D-04 -0.30116954D-04
 -0.24353819D-03 -0.18672964D-03 -0.93191176D-04 -0.64770627D-08 -0.49662009D-08
 -0.24784823D-08  0.16476757D-03  0.20303056D-04  0.77957483D-04  0.18231711D-08
 -0.30515832D-03 -0.39474733D-03 -0.29256774D-03 -0.16481777D-03 -0.14694274D-08
 -0.14547341D-07  0.10543807D+00  0.19451266D+00  0.31400374D+00  0.40873957D+00
  0.34877822D+00  0.12042474D+00 -0.36909184D-02 -0.17011409D-02  0.47701767D-02
  0.19627673D-03  0.15049255D-03  0.75106330D-04 -0.12022381D-06 -0.92179990D-07
 -0.46004276D-07  0.19698736D-07  0.15103741D-07  0.75378255D-08  0.10222061D-02
 -0.41825311D-03  0.14979110D-06 -0.42653068D-07 -0.23560173D-02 -0.24712343D-02
 -0.23368789D-02  0.52192653D-07 -0.42117994D-08  0.17206296D-08  0.25476976D+00
  0.47000046D+00  0.75872647D+00  0.98763642D+00  0.84275195D+00  0.29098199D+00
 -0.95144172D-02 -0.43851862D-02  0.12296520D-01 -0.52162368D-04 -0.39994795D-04
 -0.19960206D-04 -0.30051981D-04 -0.23041953D-04 -0.11499550D-04 -0.52871807D-08
 -0.40538748D-08 -0.20231676D-08 -0.18295452D-02  0.19293623D-03 -0.29437269D-03
  0.22030645D-07 -0.48892093D-02 -0.49652477D-02 -0.50859291D-02 -0.63541256D-04
  0.40362758D-07 -0.82509366D-08  0.90337533D-02  0.16665511D-01  0.26903302D-01
  0.35020105D-01  0.29882719D-01  0.10317785D-01 -0.24218954D-03 -0.11162494D-03
  0.31300797D-03  0.78377695D-04  0.60095045D-04  0.29991639D-04 -0.24296615D-03
 -0.18629103D-03 -0.92972282D-04  0.98864966D-08  0.75803385D-08  0.37831202D-08
  0.16213067D-03 -0.20504665D-04  0.76823348D-04 -0.27891169D-08 -0.30402472D-03
 -0.39355511D-03 -0.29172028D-03  0.16439153D-03 -0.36131984D-08  0.18591223D-07
  0.88618331D-02  0.16348352D-01  0.26391308D-01  0.34353642D-01  0.29314025D-01
  0.10121428D-01 -0.17806436D-03 -0.82069701D-04  0.23013201D-03 -0.22383512D-03
 -0.17162257D-03 -0.85651692D-04 -0.43916907D-04 -0.33672699D-04 -0.16805037D-04
 -0.21877959D-07 -0.16774632D-07 -0.83717168D-08  0.89388337D-03  0.27774996D-03
  0.25188907D-03  0.25664521D-07 -0.40658487D-03 -0.29004431D-03 -0.32056201D-03
  0.22103314D-04 -0.17393236D-07  0.19541607D-08  0.44341206D-05  0.75211079D-05
  0.85625155D-05  0.89503874D-04  0.72141346D-03  0.13308670D-02  0.21484319D-02
  0.27966200D-02  0.23863609D-02  0.82395308D-03 -0.42631949D-04 -0.19649026D-04
  0.55097920D-04 -0.37704026D-04 -0.28909056D-04 -0.14427645D-04 -0.10384733D-07
 -0.79623549D-08 -0.39737731D-08 -0.38437433D-08 -0.29471386D-08 -0.14708287D-08
 -0.55165190D-03 -0.26519537D-03  0.23491424D-08 -0.26416557D-07  0.49568743D-04
  0.27327700D-04  0.35201659D-05  0.19416760D-07  0.96399677D-08 -0.34799555D-09
  0.88672434D-02  0.16358333D-01  0.26407421D-01  0.34374616D-01  0.29331922D-01
  0.10127608D-01 -0.17822514D-03 -0.82143803D-04  0.23033980D-03 -0.22396349D-03
 -0.17172100D-03 -0.85700815D-04  0.43926182D-04  0.33679811D-04  0.16808586D-04
 -0.22764602D-07 -0.17454453D-07 -0.87109951D-08  0.89404510D-03  0.27781554D-03
 -0.25190446D-03  0.29756491D-07 -0.40683601D-03 -0.29022293D-03 -0.32070590D-03
 -0.22115896D-04 -0.17460092D-07 -0.26633754D-08  0.25491644D+00  0.47027106D+00
  0.75916331D+00  0.98820505D+00  0.84323716D+00  0.29114953D+00 -0.95199174D-02
 -0.43877212D-02  0.12303628D-01 -0.52145900D-04 -0.39982169D-04 -0.19953904D-04
  0.30030014D-04  0.23025110D-04  0.11491144D-04 -0.68791442D-08 -0.52744915D-08
 -0.26323409D-08 -0.18305196D-02  0.19284162D-03  0.29442885D-03  0.17649258D-07
 -0.48920171D-02 -0.49680980D-02 -0.50888384D-02  0.63581665D-04  0.39038121D-07
  0.36590504D-08  0.90387636D-02  0.16674754D-01  0.26918223D-01  0.35039528D-01
  0.29899293D-01  0.10323507D-01 -0.24233391D-03 -0.11169148D-03  0.31319456D-03
  0.78418441D-04  0.60126287D-04  0.30007231D-04  0.24307165D-03  0.18637192D-03
  0.93012651D-04  0.55309030D-08  0.42407456D-08  0.21164293D-08  0.16239350D-03
 -0.20504004D-04 -0.76920536D-04 -0.18237337D-08 -0.30420424D-03 -0.39378989D-03
 -0.29186791D-03 -0.16447898D-03 -0.10733663D-08 -0.14353130D-07  0.90607122D-02
  0.16715245D-01  0.26983588D-01  0.35124614D-01  0.29971897D-01  0.10348576D-01
 -0.24284794D-03 -0.11192840D-03  0.31385890D-03 -0.78716377D-04 -0.60354725D-04
 -0.30121238D-04  0.24358334D-03  0.18676426D-03  0.93208453D-04 -0.10975139D-07
 -0.84150403D-08 -0.41996949D-08  0.16474124D-03  0.20338175D-04 -0.77939642D-04
  0.38071602D-08 -0.30522368D-03 -0.39484821D-03 -0.29262697D-03  0.16486699D-03
 -0.45602965D-08  0.17345595D-07 -0.41950848D-05 -0.71156578D-05 -0.81009249D-05
  0.15505767D-04 -0.42079669D-05 -0.71375084D-05 -0.81258010D-05  0.15286331D-04
 -0.41913517D-05 -0.71093258D-05 -0.80937161D-05  0.15516205D-04 -0.11549259D-04
 -0.19589730D-04 -0.22302215D-04 -0.54672816D-04  0.44293975D-05  0.75130965D-05
  0.85533948D-05  0.89574622D-04  0.44284947D-05  0.75115651D-05  0.85516514D-05
  0.89578134D-04 -0.42062623D-05 -0.71346169D-05 -0.81225092D-05  0.15271661D-04
 -0.11534331D-04 -0.19564408D-04 -0.22273388D-04 -0.54618568D-04  0.44318870D-05
  0.75173192D-05  0.85582022D-05  0.89508050D-04
MO    2     MO 0.0        OCC NO =    2.0000000  ORB. ENERGY =  -10.195340
 -0.71113910D-03 -0.13119128D-02 -0.21178340D-02 -0.27567906D-02 -0.23523744D-02
 -0.81221835D-03  0.15958261D-04  0.73551480D-05 -0.20624603D-04 -0.13504087D-04
 -0.10354078D-04 -0.51674104D-05  0.19907014D-08  0.15263436D-08  0.76175243D-09
 -0.15087496D-08 -0.11568135D-08 -0.57733101D-09  0.22391378D-03 -0.11001281D-03
 -0.23403691D-08 -0.11540864D-07 -0.46858572D-04 -0.51113645D-04  0.72175591D-05
  0.15847252D-07 -0.11658029D-07  0.15686530D-08 -0.90846070D-02 -0.16759326D-01
 -0.27054749D-01 -0.35217244D-01 -0.30050938D-01 -0.10375867D-01  0.23444729D-03
  0.10805654D-03 -0.30300182D-03 -0.28557485D-03 -0.21896068D-03 -0.10927673D-03
  0.31720872D-04  0.24321553D-04  0.12138160D-04 -0.30783330D-07 -0.23602705D-07
 -0.11779404D-07 -0.38037353D-03  0.12611089D-03 -0.83783749D-04  0.13930120D-07
  0.45382509D-03  0.31346263D-03  0.29081933D-03  0.70993125D-05  0.36030395D-07
  0.10245166D-09 -0.25986116D+00 -0.47939310D+00 -0.77388910D+00 -0.10073737D+01
 -0.85959378D+00 -0.29679707D+00  0.97559604D-02  0.44965132D-02 -0.12608692D-01
  0.95844546D-04  0.73487519D-04  0.36675422D-04  0.16389978D-04  0.12566795D-04
  0.62717116D-05  0.90391008D-08  0.69306092D-08  0.34588597D-08  0.18971528D-02
 -0.27576504D-03  0.72991530D-05 -0.28330400D-07  0.49579269D-02  0.50244186D-02
  0.51222605D-02 -0.49602928D-04 -0.35028569D-07 -0.30422602D-08 -0.77107244D-01
 -0.14224781D+00 -0.22963207D+00 -0.29891272D+00 -0.25506277D+00 -0.88067044D-01
  0.26750952D-02  0.12329489D-02 -0.34573175D-02  0.26438486D-03  0.20271354D-03
  0.10116826D-03  0.81023495D-07  0.62123677D-07  0.31004069D-07  0.26991963D-07
  0.20695725D-07  0.10328617D-07 -0.13590277D-02  0.61117178D-04 -0.24269959D-06
  0.56709731D-08  0.18025008D-02  0.19402714D-02  0.17457114D-02  0.36675736D-07
  0.12151982D-07 -0.39128348D-08 -0.25995890D+00 -0.47957342D+00 -0.77418020D+00
 -0.10077526D+01 -0.85991711D+00 -0.29690871D+00  0.97596478D-02  0.44982128D-02
 -0.12613458D-01  0.95873036D-04  0.73509363D-04  0.36686324D-04 -0.16393022D-04
 -0.12569130D-04 -0.62728767D-05  0.72179165D-08  0.55342406D-08  0.27619739D-08
  0.18980851D-02 -0.27598034D-03 -0.73446740D-05 -0.26560813D-07  0.49597884D-02
  0.50263315D-02  0.51241788D-02  0.49620164D-04 -0.35872811D-07  0.74324689D-08
 -0.90882222D-02 -0.16765995D-01 -0.27065515D-01 -0.35231259D-01 -0.30062897D-01
 -0.10379996D-01  0.23455570D-03  0.10810651D-03 -0.30314193D-03 -0.28567522D-03
 -0.21903764D-03 -0.10931513D-03 -0.31723944D-04 -0.24323908D-04 -0.12139335D-04
 -0.29921804D-07 -0.22942142D-07 -0.11449737D-07 -0.38041754D-03  0.12613561D-03
  0.83788484D-04  0.11588862D-07  0.45399634D-03  0.31358979D-03  0.29091669D-03
 -0.71064065D-05  0.36733776D-07 -0.61524501D-09 -0.82721924D-02 -0.15260580D-01
 -0.24635307D-01 -0.32067851D-01 -0.27363555D-01 -0.94479779D-02  0.19495643D-03
  0.89855242D-04 -0.25196348D-03  0.11089256D-03  0.85025379D-04  0.42433623D-04
  0.19181480D-03  0.14707142D-03  0.73398948D-04  0.97139884D-08  0.74480702D-08
  0.37171090D-08 -0.88357753D-03  0.65093826D-04 -0.38163838D-03  0.97178715D-08
  0.38209112D-03  0.39929198D-03  0.28515762D-03  0.14431089D-03  0.19224992D-07
  0.12918396D-07  0.77407344D-01  0.14280143D+00  0.23052579D+00  0.30007609D+00
  0.25605547D+00  0.88409800D-01 -0.26856071D-02 -0.12377939D-02  0.34709032D-02
  0.26493585D-03  0.20313601D-03  0.10137911D-03 -0.16809576D-06 -0.12888517D-06
 -0.64322732D-07  0.27790081D-07  0.21307672D-07  0.10634022D-07  0.13618942D-02
  0.59943025D-04  0.31620712D-06  0.63621666D-08 -0.18092005D-02 -0.19472945D-02
 -0.17523568D-02  0.73699624D-07 -0.10310452D-07  0.34839496D-08  0.26052627D+00
  0.48062009D+00  0.77586984D+00  0.10099520D+01  0.86179388D+00  0.29755672D+00
 -0.97807927D-02 -0.45079584D-02  0.12640786D-01  0.95691420D-04  0.73370111D-04
  0.36616828D-04 -0.16486158D-04 -0.12640540D-04 -0.63085155D-05  0.10247486D-07
  0.78571220D-08  0.39212545D-08 -0.19019867D-02 -0.27520640D-03 -0.81067167D-05
 -0.28208300D-07 -0.49706938D-02 -0.50373889D-02 -0.51355433D-02 -0.49767234D-04
  0.33497982D-07 -0.64723362D-08  0.82958207D-02  0.15304169D-01  0.24705675D-01
  0.32159447D-01  0.27441715D-01  0.94749647D-02 -0.19558416D-03 -0.90144560D-04
  0.25277476D-03  0.11110008D-03  0.85184498D-04  0.42513035D-04 -0.19246101D-03
 -0.14756689D-03 -0.73646223D-04  0.13144352D-07  0.10078255D-07  0.50297556D-08
  0.88397691D-03  0.65045038D-04  0.38183559D-03  0.39400553D-08 -0.38288712D-03
 -0.40031733D-03 -0.28592855D-03  0.14474009D-03 -0.20757925D-07  0.16809540D-07
  0.91077688D-02  0.16802055D-01  0.27123726D-01  0.35307033D-01  0.30127555D-01
  0.10402321D-01 -0.23489616D-03 -0.10826343D-03  0.30358195D-03 -0.28616169D-03
 -0.21941063D-03 -0.10950128D-03 -0.31841017D-04 -0.24413672D-04 -0.12184134D-04
 -0.28432946D-07 -0.21800580D-07 -0.10880017D-07  0.38282319D-03  0.12686749D-03
  0.84485674D-04  0.12193589D-07 -0.45488268D-03 -0.31421918D-03 -0.29167370D-03
  0.71571436D-05 -0.32425244D-07  0.12378754D-08 -0.14439675D-05 -0.24492422D-05
 -0.27883756D-05  0.25107616D-04  0.71319206D-03  0.13157001D-02  0.21239479D-02
  0.27647491D-02  0.23591654D-02  0.81456311D-03 -0.16078644D-04 -0.74106324D-05
  0.20780187D-04 -0.13610721D-04 -0.10435838D-04 -0.52082143D-05 -0.10582140D-07
 -0.81137140D-08 -0.40493119D-08 -0.13851004D-08 -0.10620071D-08 -0.53001600D-09
 -0.22546494D-03 -0.11075845D-03  0.33503608D-08 -0.11081198D-07  0.46997699D-04
  0.51190134D-04 -0.72085726D-05  0.29203373D-07  0.10993990D-07 -0.78182369D-09
  0.91152462D-02  0.16815849D-01  0.27145995D-01  0.35336019D-01  0.30152289D-01
  0.10410861D-01 -0.23511928D-03 -0.10836626D-03  0.30387031D-03 -0.28635097D-03
 -0.21955576D-03 -0.10957371D-03  0.31851296D-04  0.24421553D-04  0.12188067D-04
 -0.28969446D-07 -0.22211934D-07 -0.11085312D-07  0.38299843D-03  0.12694271D-03
 -0.84503182D-04  0.13302211D-07 -0.45523505D-03 -0.31447245D-03 -0.29187390D-03
 -0.71736005D-05 -0.33055249D-07 -0.21483110D-09  0.26073050D+00  0.48099687D+00
  0.77647808D+00  0.10107438D+01  0.86246947D+00  0.29778998D+00 -0.97884673D-02
 -0.45114956D-02  0.12650705D-01  0.95729980D-04  0.73399676D-04  0.36631583D-04
  0.16469625D-04  0.12627864D-04  0.63021892D-05  0.84868070D-08  0.65071453D-08
  0.32475216D-08 -0.19035536D-02 -0.27545419D-03  0.81896452D-05 -0.27226904D-07
 -0.49745966D-02 -0.50413659D-02 -0.51395787D-02  0.49815510D-04  0.32799877D-07
  0.34419374D-08  0.83024628D-02  0.15316423D-01  0.24725455D-01  0.32185196D-01
  0.27463686D-01  0.94825509D-02 -0.19576000D-03 -0.90225604D-04  0.25300201D-03
  0.11116750D-03  0.85236188D-04  0.42538832D-04  0.19260938D-03  0.14768066D-03
  0.73702999D-04  0.99478415D-08  0.76273739D-08  0.38065942D-08  0.88456417D-03
  0.65100493D-04 -0.38206522D-03  0.10013854D-07 -0.38315792D-03 -0.40064710D-03
 -0.28614177D-03 -0.14484693D-03 -0.17385262D-07 -0.11833508D-07 -0.82749725D-02
 -0.15265709D-01 -0.24643587D-01 -0.32078628D-01 -0.27372751D-01 -0.94511532D-02
  0.19501586D-03  0.89882630D-04 -0.25204028D-03  0.11093359D-03  0.85056838D-04
  0.42449323D-04 -0.19188630D-03 -0.14712624D-03 -0.73426306D-04  0.13729530D-07
  0.10526933D-07  0.52536772D-08 -0.88404412D-03  0.65166577D-04  0.38182727D-03
  0.16762692D-08  0.38223580D-03  0.39945035D-03  0.28526378D-03 -0.14434936D-03
  0.20944952D-07 -0.16069840D-07 -0.49141985D-05 -0.83354108D-05 -0.94895706D-05
 -0.82230290D-04  0.49009611D-05  0.83129576D-05  0.94640084D-05  0.82274832D-04
 -0.49092847D-05 -0.83270760D-05 -0.94800817D-05 -0.82186212D-04  0.52823998D-05
  0.89599499D-05  0.10200586D-04  0.19162366D-04  0.14571954D-05  0.24716792D-05
  0.28139194D-05 -0.24857591D-04  0.14588169D-05  0.24744295D-05  0.28170506D-05
 -0.24857303D-04  0.48987719D-05  0.83092443D-05  0.94597810D-05  0.82228445D-04
 -0.53148490D-05 -0.90149898D-05 -0.10263247D-04 -0.19315776D-04 -0.14472328D-05
 -0.24547807D-05 -0.27946811D-05  0.25110857D-04
MO    3     MO 0.0        OCC NO =    2.0000000  ORB. ENERGY =  -10.195274