 Generated by Multiwfn
GAUSSIAN            121 MOL ORBITALS    552 PRIMITIVES       30 NUCLEI
  C    1    (CENTRE  1)   9.20257050  1.34756945  0.00022410  CHARGE =  6.0
  C    2    (CENTRE  2)   6.98816372  2.65291325  0.00013277  CHARGE =  6.0
  C    3    (CENTRE  3)   4.61238757  1.36687958  0.00001064  CHARGE =  6.0
  C    4    (CENTRE  4)   4.61238780 -1.36687410 -0.00002392  CHARGE =  6.0
  C    5    (CENTRE  5)   6.98816725 -2.65290928  0.00007115  CHARGE =  6.0
  C    6    (CENTRE  6)   9.20257182 -1.34756259  0.00018372  CHARGE =  6.0
  C    7    (CENTRE  7)   2.32613219  2.64781725 -0.00010050  CHARGE =  6.0
  C    8    (CENTRE  8)   2.32613620 -2.64781526 -0.00011614  CHARGE =  6.0
  C    9    (CENTRE  9)  -0.00001812 -1.36719057 -0.00021237  CHARGE =  6.0
  C   10    (CENTRE 10)  -0.00002045  1.36718912 -0.00024279  CHARGE =  6.0
  C   11    (CENTRE 11)  -2.32613342  2.64778244 -0.00033546  CHARGE =  6.0
  H   12    (CENTRE 12)  -2.32696913  4.69539413 -0.00073367  CHARGE =  1.0
  C   13    (CENTRE 13)  -4.61243018 -1.36688374 -0.00009776  CHARGE =  6.0
  C   14    (CENTRE 14)  -2.32612673 -2.64780863 -0.00029654  CHARGE =  6.0
  H   15    (CENTRE 15)   2.32683540  4.69541675 -0.00001897  CHARGE =  1.0
  H   16    (CENTRE 16)  10.98539214  2.34807726  0.00032097  CHARGE =  1.0
  H   17    (CENTRE 17)   6.98762968  4.69902231  0.00017361  CHARGE =  1.0
  H   18    (CENTRE 18)   6.98763299 -4.69901787  0.00005097  CHARGE =  1.0
  H   19    (CENTRE 19)  10.98539513 -2.34806895  0.00024423  CHARGE =  1.0
  H   20    (CENTRE 20)   2.32684314 -4.69541588 -0.00003316  CHARGE =  1.0
  H   21    (CENTRE 21)  -2.32696428 -4.69541042 -0.00070141  CHARGE =  1.0
  C   22    (CENTRE 22)  -4.61245029  1.36689428 -0.00012941  CHARGE =  6.0
  C   23    (CENTRE 23)  -6.98810735  2.65287929  0.00012340  CHARGE =  6.0
  C   24    (CENTRE 24)  -9.20257617  1.34751760  0.00024642  CHARGE =  6.0
  H   25    (CENTRE 25)  -6.98761419  4.69899153  0.00030963  CHARGE =  1.0
  C   26    (CENTRE 26)  -6.98808605 -2.65287449  0.00016065  CHARGE =  6.0
  C   27    (CENTRE 27)  -9.20255642 -1.34751826  0.00025662  CHARGE =  6.0
  H   28    (CENTRE 28) -10.98534205  2.34812339  0.00040888  CHARGE =  1.0
  H   29    (CENTRE 29)  -6.98760440 -4.69898747  0.00047846  CHARGE =  1.0
  H   30    (CENTRE 30) -10.98530563 -2.34815684  0.00037290  CHARGE =  1.0
CENTRE ASSIGNMENTS    1  1  1  1  1  1  1  1  1  1  1  1  1  1  1  1  1  1  1  1
CENTRE ASSIGNMENTS    1  1  1  1  1  1  1  1  2  2  2  2  2  2  2  2  2  2  2  2
CENTRE ASSIGNMENTS    2  2  2  2  2  2  2  2  2  2  2  2  2  2  2  2  3  3  3  3
CENTRE ASSIGNMENTS    3  3  3  3  3  3  3  3  3  3  3  3  3  3  3  3  3  3  3  3
CENTRE ASSIGNMENTS    3  3  3  3  4  4  4  4  4  4  4  4  4  4  4  4  4  4  4  4
CENTRE ASSIGNMENTS    4  4  4  4  4  4  4  4  4  4  4  4  5  5  5  5  5  5  5  5
CENTRE ASSIGNMENTS    5  5  5  5  5  5  5  5  5  5  5  5  5  5  5  5  5  5  5  5
CENTRE ASSIGNMENTS    6  6  6  6  6  6  6  6  6  6  6  6  6  6  6  6  6  6  6  6
CENTRE ASSIGNMENTS    6  6  6  6  6  6  6  6  7  7  7  7  7  7  7  7  7  7  7  7
CENTRE ASSIGNMENTS    7  7  7  7  7  7  7  7  7  7  7  7  7  7  7  7  8  8  8  8
CENTRE ASSIGNMENTS    8  8  8  8  8  8  8  8  8  8  8  8  8  8  8  8  8  8  8  8
CENTRE ASSIGNMENTS    8  8  8  8  9  9  9  9  9  9  9  9  9  9  9  9  9  9  9  9
CENTRE ASSIGNMENTS    9  9  9  9  9  9  9  9  9  9  9  9 10 10 10 10 10 10 10 10
CENTRE ASSIGNMENTS   10 10 10 10 10 10 10 10 10 10 10 10 10 10 10 10 10 10 10 10
CENTRE ASSIGNMENTS   11 11 11 11 11 11 11 11 11 11 11 11 11 11 11 11 11 11 11 11
CENTRE ASSIGNMENTS   11 11 11 11 11 11 11 11 12 12 12 12 13 13 13 13 13 13 13 13
CENTRE ASSIGNMENTS   13 13 13 13 13 13 13 13 13 13 13 13 13 13 13 13 13 13 13 13
CENTRE ASSIGNMENTS   14 14 14 14 14 14 14 14 14 14 14 14 14 14 14 14 14 14 14 14
CENTRE ASSIGNMENTS   14 14 14 14 14 14 14 14 15 15 15 15 16 16 16 16 17 17 17 17
CENTRE ASSIGNMENTS   18 18 18 18 19 19 19 19 20 20 20 20 21 21 21 21 22 22 22 22
CENTRE ASSIGNMENTS   22 22 22 22 22 22 22 22 22 22 22 22 22 22 22 22 22 22 22 22
CENTRE ASSIGNMENTS   22 22 22 22 23 23 23 23 23 23 23 23 23 23 23 23 23 23 23 23
CENTRE ASSIGNMENTS   23 23 23 23 23 23 23 23 23 23 23 23 24 24 24 24 24 24 24 24
CENTRE ASSIGNMENTS   24 24 24 24 24 24 24 24 24 24 24 24 24 24 24 24 24 24 24 24
CENTRE ASSIGNMENTS   25 25 25 25 26 26 26 26 26 26 26 26 26 26 26 26 26 26 26 26
CENTRE ASSIGNMENTS   26 26 26 26 26 26 26 26 26 26 26 26 27 27 27 27 27 27 27 27
CENTRE ASSIGNMENTS   27 27 27 27 27 27 27 27 27 27 27 27 27 27 27 27 27 27 27 27
CENTRE ASSIGNMENTS   28 28 28 28 29 29 29 29 30 30 30 30
TYPE ASSIGNMENTS      1  1  1  1  1  1  1  1  1  2  2  2  3  3  3  4  4  4  1  2
TYPE ASSIGNMENTS      3  4  5  6  7  8  9 10  1  1  1  1  1  1  1  1  1  2  2  2
TYPE ASSIGNMENTS      3  3  3  4  4  4  1  2  3  4  5  6  7  8  9 10  1  1  1  1
TYPE ASSIGNMENTS      1  1  1  1  1  2  2  2  3  3  3  4  4  4  1  2  3  4  5  6
TYPE ASSIGNMENTS      7  8  9 10  1  1  1  1  1  1  1  1  1  2  2  2  3  3  3  4
TYPE ASSIGNMENTS      4  4  1  2  3  4  5  6  7  8  9 10  1  1  1  1  1  1  1  1
TYPE ASSIGNMENTS      1  2  2  2  3  3  3  4  4  4  1  2  3  4  5  6  7  8  9 10
TYPE ASSIGNMENTS      1  1  1  1  1  1  1  1  1  2  2  2  3  3  3  4  4  4  1  2
TYPE ASSIGNMENTS      3  4  5  6  7  8  9 10  1  1  1  1  1  1  1  1  1  2  2  2
TYPE ASSIGNMENTS      3  3  3  4  4  4  1  2  3  4  5  6  7  8  9 10  1  1  1  1
TYPE ASSIGNMENTS      1  1  1  1  1  2  2  2  3  3  3  4  4  4  1  2  3  4  5  6
TYPE ASSIGNMENTS      7  8  9 10  1  1  1  1  1  1  1  1  1  2  2  2  3  3  3  4
TYPE ASSIGNMENTS      4  4  1  2  3  4  5  6  7  8  9 10  1  1  1  1  1  1  1  1
TYPE ASSIGNMENTS      1  2  2  2  3  3  3  4  4  4  1  2  3  4  5  6  7  8  9 10
TYPE ASSIGNMENTS      1  1  1  1  1  1  1  1  1  2  2  2  3  3  3  4  4  4  1  2
TYPE ASSIGNMENTS      3  4  5  6  7  8  9 10  1  1  1  1  1  1  1  1  1  1  1  1
TYPE ASSIGNMENTS      1  2  2  2  3  3  3  4  4  4  1  2  3  4  5  6  7  8  9 10
TYPE ASSIGNMENTS      1  1  1  1  1  1  1  1  1  2  2  2  3  3  3  4  4  4  1  2
TYPE ASSIGNMENTS      3  4  5  6  7  8  9 10  1  1  1  1  1  1  1  1  1  1  1  1
TYPE ASSIGNMENTS      1  1  1  1  1  1  1  1  1  1  1  1  1  1  1  1  1  1  1  1
TYPE ASSIGNMENTS      1  1  1  1  1  2  2  2  3  3  3  4  4  4  1  2  3  4  5  6
TYPE ASSIGNMENTS      7  8  9 10  1  1  1  1  1  1  1  1  1  2  2  2  3  3  3  4
TYPE ASSIGNMENTS      4  4  1  2  3  4  5  6  7  8  9 10  1  1  1  1  1  1  1  1
TYPE ASSIGNMENTS      1  2  2  2  3  3  3  4  4  4  1  2  3  4  5  6  7  8  9 10
TYPE ASSIGNMENTS      1  1  1  1  1  1  1  1  1  1  1  1  1  2  2  2  3  3  3  4
TYPE ASSIGNMENTS      4  4  1  2  3  4  5  6  7  8  9 10  1  1  1  1  1  1  1  1
TYPE ASSIGNMENTS      1  2  2  2  3  3  3  4  4  4  1  2  3  4  5  6  7  8  9 10
TYPE ASSIGNMENTS      1  1  1  1  1  1  1  1  1  1  1  1
EXPONENTS  0.3047525D+04 0.4573695D+03 0.1039487D+03 0.2921016D+02 0.9286663D+01
EXPONENTS  0.3163927D+01 0.7868272D+01 0.1881289D+01 0.5442493D+00 0.7868272D+01
EXPONENTS  0.1881289D+01 0.5442493D+00 0.7868272D+01 0.1881289D+01 0.5442493D+00
EXPONENTS  0.7868272D+01 0.1881289D+01 0.5442493D+00 0.1687145D+00 0.1687145D+00
EXPONENTS  0.1687145D+00 0.1687145D+00 0.8000000D+00 0.8000000D+00 0.8000000D+00
EXPONENTS  0.8000000D+00 0.8000000D+00 0.8000000D+00 0.3047525D+04 0.4573695D+03
EXPONENTS  0.1039487D+03 0.2921016D+02 0.9286663D+01 0.3163927D+01 0.7868272D+01
EXPONENTS  0.1881289D+01 0.5442493D+00 0.7868272D+01 0.1881289D+01 0.5442493D+00
EXPONENTS  0.7868272D+01 0.1881289D+01 0.5442493D+00 0.7868272D+01 0.1881289D+01
EXPONENTS  0.5442493D+00 0.1687145D+00 0.1687145D+00 0.1687145D+00 0.1687145D+00
EXPONENTS  0.8000000D+00 0.8000000D+00 0.8000000D+00 0.8000000D+00 0.8000000D+00
EXPONENTS  0.8000000D+00 0.3047525D+04 0.4573695D+03 0.1039487D+03 0.2921016D+02
EXPONENTS  0.9286663D+01 0.3163927D+01 0.7868272D+01 0.1881289D+01 0.5442493D+00
EXPONENTS  0.7868272D+01 0.1881289D+01 0.5442493D+00 0.7868272D+01 0.1881289D+01
EXPONENTS  0.5442493D+00 0.7868272D+01 0.1881289D+01 0.5442493D+00 0.1687145D+00
EXPONENTS  0.1687145D+00 0.1687145D+00 0.1687145D+00 0.8000000D+00 0.8000000D+00
EXPONENTS  0.8000000D+00 0.8000000D+00 0.8000000D+00 0.8000000D+00 0.3047525D+04
EXPONENTS  0.4573695D+03 0.1039487D+03 0.2921016D+02 0.9286663D+01 0.3163927D+01
EXPONENTS  0.7868272D+01 0.1881289D+01 0.5442493D+00 0.7868272D+01 0.1881289D+01
EXPONENTS  0.5442493D+00 0.7868272D+01 0.1881289D+01 0.5442493D+00 0.7868272D+01
EXPONENTS  0.1881289D+01 0.5442493D+00 0.1687145D+00 0.1687145D+00 0.1687145D+00
EXPONENTS  0.1687145D+00 0.8000000D+00 0.8000000D+00 0.8000000D+00 0.8000000D+00
EXPONENTS  0.8000000D+00 0.8000000D+00 0.3047525D+04 0.4573695D+03 0.1039487D+03
EXPONENTS  0.2921016D+02 0.9286663D+01 0.3163927D+01 0.7868272D+01 0.1881289D+01
EXPONENTS  0.5442493D+00 0.7868272D+01 0.1881289D+01 0.5442493D+00 0.7868272D+01
EXPONENTS  0.1881289D+01 0.5442493D+00 0.7868272D+01 0.1881289D+01 0.5442493D+00
EXPONENTS  0.1687145D+00 0.1687145D+00 0.1687145D+00 0.1687145D+00 0.8000000D+00
EXPONENTS  0.8000000D+00 0.8000000D+00 0.8000000D+00 0.8000000D+00 0.8000000D+00
EXPONENTS  0.3047525D+04 0.4573695D+03 0.1039487D+03 0.2921016D+02 0.9286663D+01
EXPONENTS  0.3163927D+01 0.7868272D+01 0.1881289D+01 0.5442493D+00 0.7868272D+01
EXPONENTS  0.1881289D+01 0.5442493D+00 0.7868272D+01 0.1881289D+01 0.5442493D+00
EXPONENTS  0.7868272D+01 0.1881289D+01 0.5442493D+00 0.1687145D+00 0.1687145D+00
EXPONENTS  0.1687145D+00 0.1687145D+00 0.8000000D+00 0.8000000D+00 0.8000000D+00
EXPONENTS  0.8000000D+00 0.8000000D+00 0.8000000D+00 0.3047525D+04 0.4573695D+03
EXPONENTS  0.1039487D+03 0.2921016D+02 0.9286663D+01 0.3163927D+01 0.7868272D+01
EXPONENTS  0.1881289D+01 0.5442493D+00 0.7868272D+01 0.1881289D+01 0.5442493D+00
EXPONENTS  0.7868272D+01 0.1881289D+01 0.5442493D+00 0.7868272D+01 0.1881289D+01
EXPONENTS  0.5442493D+00 0.1687145D+00 0.1687145D+00 0.1687145D+00 0.1687145D+00
EXPONENTS  0.8000000D+00 0.8000000D+00 0.8000000D+00 0.8000000D+00 0.8000000D+00
EXPONENTS  0.8000000D+00 0.3047525D+04 0.4573695D+03 0.1039487D+03 0.2921016D+02
EXPONENTS  0.9286663D+01 0.3163927D+01 0.7868272D+01 0.1881289D+01 0.5442493D+00
EXPONENTS  0.7868272D+01 0.1881289D+01 0.5442493D+00 0.7868272D+01 0.1881289D+01
EXPONENTS  0.5442493D+00 0.7868272D+01 0.1881289D+01 0.5442493D+00 0.1687145D+00
EXPONENTS  0.1687145D+00 0.1687145D+00 0.1687145D+00 0.8000000D+00 0.8000000D+00
EXPONENTS  0.8000000D+00 0.8000000D+00 0.8000000D+00 0.8000000D+00 0.3047525D+04
EXPONENTS  0.4573695D+03 0.1039487D+03 0.2921016D+02 0.9286663D+01 0.3163927D+01
EXPONENTS  0.7868272D+01 0.1881289D+01 0.5442493D+00 0.7868272D+01 0.1881289D+01
EXPONENTS  0.5442493D+00 0.7868272D+01 0.1881289D+01 0.5442493D+00 0.7868272D+01
EXPONENTS  0.1881289D+01 0.5442493D+00 0.1687145D+00 0.1687145D+00 0.1687145D+00
EXPONENTS  0.1687145D+00 0.8000000D+00 0.8000000D+00 0.8000000D+00 0.8000000D+00
EXPONENTS  0.8000000D+00 0.8000000D+00 0.3047525D+04 0.4573695D+03 0.1039487D+03
EXPONENTS  0.2921016D+02 0.9286663D+01 0.3163927D+01 0.7868272D+01 0.1881289D+01
EXPONENTS  0.5442493D+00 0.7868272D+01 0.1881289D+01 0.5442493D+00 0.7868272D+01
EXPONENTS  0.1881289D+01 0.5442493D+00 0.7868272D+01 0.1881289D+01 0.5442493D+00
EXPONENTS  0.1687145D+00 0.1687145D+00 0.1687145D+00 0.1687145D+00 0.8000000D+00
EXPONENTS  0.8000000D+00 0.8000000D+00 0.8000000D+00 0.8000000D+00 0.8000000D+00
EXPONENTS  0.3047525D+04 0.4573695D+03 0.1039487D+03 0.2921016D+02 0.9286663D+01
EXPONENTS  0.3163927D+01 0.7868272D+01 0.1881289D+01 0.5442493D+00 0.7868272D+01
EXPONENTS  0.1881289D+01 0.5442493D+00 0.7868272D+01 0.1881289D+01 0.5442493D+00
EXPONENTS  0.7868272D+01 0.1881289D+01 0.5442493D+00 0.1687145D+00 0.1687145D+00
EXPONENTS  0.1687145D+00 0.1687145D+00 0.8000000D+00 0.8000000D+00 0.8000000D+00
EXPONENTS  0.8000000D+00 0.8000000D+00 0.8000000D+00 0.1873114D+02 0.2825394D+01
EXPONENTS  0.6401217D+00 0.1612778D+00 0.3047525D+04 0.4573695D+03 0.1039487D+03
EXPONENTS  0.2921016D+02 0.9286663D+01 0.3163927D+01 0.7868272D+01 0.1881289D+01
EXPONENTS  0.5442493D+00 0.7868272D+01 0.1881289D+01 0.5442493D+00 0.7868272D+01
EXPONENTS  0.1881289D+01 0.5442493D+00 0.7868272D+01 0.1881289D+01 0.5442493D+00
EXPONENTS  0.1687145D+00 0.1687145D+00 0.1687145D+00 0.1687145D+00 0.8000000D+00
EXPONENTS  0.8000000D+00 0.8000000D+00 0.8000000D+00 0.8000000D+00 0.8000000D+00
EXPONENTS  0.3047525D+04 0.4573695D+03 0.1039487D+03 0.2921016D+02 0.9286663D+01
EXPONENTS  0.3163927D+01 0.7868272D+01 0.1881289D+01 0.5442493D+00 0.7868272D+01
EXPONENTS  0.1881289D+01 0.5442493D+00 0.7868272D+01 0.1881289D+01 0.5442493D+00
EXPONENTS  0.7868272D+01 0.1881289D+01 0.5442493D+00 0.1687145D+00 0.1687145D+00
EXPONENTS  0.1687145D+00 0.1687145D+00 0.8000000D+00 0.8000000D+00 0.8000000D+00
EXPONENTS  0.8000000D+00 0.8000000D+00 0.8000000D+00 0.1873114D+02 0.2825394D+01
EXPONENTS  0.6401217D+00 0.1612778D+00 0.1873114D+02 0.2825394D+01 0.6401217D+00
EXPONENTS  0.1612778D+00 0.1873114D+02 0.2825394D+01 0.6401217D+00 0.1612778D+00
EXPONENTS  0.1873114D+02 0.2825394D+01 0.6401217D+00 0.1612778D+00 0.1873114D+02
EXPONENTS  0.2825394D+01 0.6401217D+00 0.1612778D+00 0.1873114D+02 0.2825394D+01
EXPONENTS  0.6401217D+00 0.1612778D+00 0.1873114D+02 0.2825394D+01 0.6401217D+00
EXPONENTS  0.1612778D+00 0.3047525D+04 0.4573695D+03 0.1039487D+03 0.2921016D+02
EXPONENTS  0.9286663D+01 0.3163927D+01 0.7868272D+01 0.1881289D+01 0.5442493D+00
EXPONENTS  0.7868272D+01 0.1881289D+01 0.5442493D+00 0.7868272D+01 0.1881289D+01
EXPONENTS  0.5442493D+00 0.7868272D+01 0.1881289D+01 0.5442493D+00 0.1687145D+00
EXPONENTS  0.1687145D+00 0.1687145D+00 0.1687145D+00 0.8000000D+00 0.8000000D+00
EXPONENTS  0.8000000D+00 0.8000000D+00 0.8000000D+00 0.8000000D+00 0.3047525D+04
EXPONENTS  0.4573695D+03 0.1039487D+03 0.2921016D+02 0.9286663D+01 0.3163927D+01
EXPONENTS  0.7868272D+01 0.1881289D+01 0.5442493D+00 0.7868272D+01 0.1881289D+01
EXPONENTS  0.5442493D+00 0.7868272D+01 0.1881289D+01 0.5442493D+00 0.7868272D+01
EXPONENTS  0.1881289D+01 0.5442493D+00 0.1687145D+00 0.1687145D+00 0.1687145D+00
EXPONENTS  0.1687145D+00 0.8000000D+00 0.8000000D+00 0.8000000D+00 0.8000000D+00
EXPONENTS  0.8000000D+00 0.8000000D+00 0.3047525D+04 0.4573695D+03 0.1039487D+03
EXPONENTS  0.2921016D+02 0.9286663D+01 0.3163927D+01 0.7868272D+01 0.1881289D+01
EXPONENTS  0.5442493D+00 0.7868272D+01 0.1881289D+01 0.5442493D+00 0.7868272D+01
EXPONENTS  0.1881289D+01 0.5442493D+00 0.7868272D+01 0.1881289D+01 0.5442493D+00
EXPONENTS  0.1687145D+00 0.1687145D+00 0.1687145D+00 0.1687145D+00 0.8000000D+00
EXPONENTS  0.8000000D+00 0.8000000D+00 0.8000000D+00 0.8000000D+00 0.8000000D+00
EXPONENTS  0.1873114D+02 0.2825394D+01 0.6401217D+00 0.1612778D+00 0.3047525D+04
EXPONENTS  0.4573695D+03 0.1039487D+03 0.2921016D+02 0.9286663D+01 0.3163927D+01
EXPONENTS  0.7868272D+01 0.1881289D+01 0.5442493D+00 0.7868272D+01 0.1881289D+01
EXPONENTS  0.5442493D+00 0.7868272D+01 0.1881289D+01 0.5442493D+00 0.7868272D+01
EXPONENTS  0.1881289D+01 0.5442493D+00 0.1687145D+00 0.1687145D+00 0.1687145D+00
EXPONENTS  0.1687145D+00 0.8000000D+00 0.8000000D+00 0.8000000D+00 0.8000000D+00
EXPONENTS  0.8000000D+00 0.8000000D+00 0.3047525D+04 0.4573695D+03 0.1039487D+03
EXPONENTS  0.2921016D+02 0.9286663D+01 0.3163927D+01 0.7868272D+01 0.1881289D+01
EXPONENTS  0.5442493D+00 0.7868272D+01 0.1881289D+01 0.5442493D+00 0.7868272D+01
EXPONENTS  0.1881289D+01 0.5442493D+00 0.7868272D+01 0.1881289D+01 0.5442493D+00
EXPONENTS  0.1687145D+00 0.1687145D+00 0.1687145D+00 0.1687145D+00 0.8000000D+00
EXPONENTS  0.8000000D+00 0.8000000D+00 0.8000000D+00 0.8000000D+00 0.8000000D+00
EXPONENTS  0.1873114D+02 0.2825394D+01 0.6401217D+00 0.1612778D+00 0.1873114D+02
EXPONENTS  0.2825394D+01 0.6401217D+00 0.1612778D+00 0.1873114D+02 0.2825394D+01
EXPONENTS  0.6401217D+00 0.1612778D+00
MO    1     MO 0.0        OCC NO =    1.0000000  ORB. ENERGY =  -10.046436
  0.37432933D+00  0.69056452D+00  0.11147852D+01  0.14511192D+01  0.12382426D+01
  0.42753542D+00 -0.13844333D-01 -0.63808406D-02  0.17892543D-01 -0.13239649D-05
 -0.10151323D-05 -0.50662217D-06  0.20904144D-03  0.16027972D-03  0.79990812D-04
 -0.24270008D-08 -0.18608703D-08 -0.92870470D-09 -0.13700489D-02  0.13030031D-03
 -0.10568084D-03  0.63891072D-08 -0.74454728D-02 -0.76476807D-02 -0.76478932D-02
 -0.26247322D-04  0.19465772D-07 -0.34950783D-08  0.38762022D-01  0.71508362D-01
  0.11543667D+00  0.15026424D+00  0.12822075D+00  0.44271544D-01 -0.12717368D-02
 -0.58614231D-03  0.16436042D-02 -0.29395231D-03 -0.22538399D-03 -0.11248241D-03
  0.21992198D-03  0.16862222D-03  0.84154307D-04 -0.94087725D-08 -0.72140500D-08
 -0.36003165D-08  0.47324278D-03  0.16420024D-03 -0.15109716D-03  0.47489366D-08
 -0.97795922D-03 -0.90564203D-03 -0.92369427D-03 -0.23610662D-04 -0.51938746D-08
  0.11857009D-08  0.49918200D-02  0.92089333D-02  0.14866074D-01  0.19351211D-01
  0.16512423D-01  0.57013429D-02 -0.15842142D-03 -0.73016288D-04  0.20474529D-03
 -0.86171329D-04 -0.66070709D-04 -0.32973915D-04  0.37094997D-04  0.28442091D-04
  0.14194597D-04 -0.45560718D-08 -0.34933069D-08 -0.17434050D-08 -0.15492649D-03
  0.52152817D-04 -0.53790421D-04  0.36403105D-08 -0.85684614D-04 -0.10314400D-03
 -0.12990371D-03  0.46747746D-04  0.47788175D-08  0.27985351D-08  0.49923649D-02
  0.92099385D-02  0.14867696D-01  0.19353323D-01  0.16514226D-01  0.57019652D-02
 -0.15844611D-03 -0.73027668D-04  0.20477720D-03 -0.86162514D-04 -0.66063951D-04
 -0.32970541D-04 -0.37093988D-04 -0.28441317D-04 -0.14194211D-04 -0.26451743D-08
 -0.20281519D-08 -0.10121899D-08 -0.15499141D-03  0.52062718D-04  0.53799173D-04
  0.77877668D-09 -0.85693683D-04 -0.10315161D-03 -0.12990962D-03 -0.46743612D-04
  0.43212881D-08 -0.91283428D-09  0.38766903D-01  0.71517366D-01  0.11545120D+00
  0.15028316D+00  0.12823690D+00  0.44277118D-01 -0.12718887D-02 -0.58621235D-03
  0.16438006D-02 -0.29398300D-03 -0.22540752D-03 -0.11249415D-03 -0.21994079D-03
 -0.16863665D-03 -0.84161506D-04 -0.16287871D-07 -0.12488506D-07 -0.62326398D-08
  0.47345952D-03  0.16420743D-03  0.15118648D-03  0.99730556D-08 -0.97808783D-03
 -0.90576258D-03 -0.92381629D-03  0.23602510D-04 -0.41713628D-08  0.31222212D-08
  0.37437169D+00  0.69064266D+00  0.11149114D+01  0.14512834D+01  0.12383827D+01
  0.42758380D+00 -0.13845940D-01 -0.63815812D-02  0.17894620D-01 -0.13358506D-05
 -0.10242455D-05 -0.51117029D-06 -0.20899946D-03 -0.16024753D-03 -0.79974747D-04
 -0.30332483D-08 -0.23257024D-08 -0.11606885D-08 -0.13704738D-02  0.13039091D-03
  0.10560593D-03  0.62407603D-08 -0.74462779D-02 -0.76484655D-02 -0.76487182D-02
  0.26271896D-04  0.17296648D-07  0.20659976D-09  0.63672805D-04  0.11746389D-03
  0.18962314D-03  0.24683299D-03  0.21062304D-03  0.72723074D-04  0.24518550D-04
  0.11300577D-04 -0.31687998D-04 -0.10718374D-04 -0.82181693D-05 -0.41014424D-05
 -0.73197213D-05 -0.56122980D-05 -0.28009300D-05 -0.12862811D-08 -0.98623876D-09
 -0.49220226D-09  0.11505446D-03  0.93539015D-04 -0.15054940D-04  0.46706006D-08
  0.25551212D-04 -0.87125644D-05 -0.23502828D-04 -0.22801880D-04  0.41022155D-08
  0.56819615D-09  0.63679706D-04  0.11747662D-03  0.18964370D-03  0.24685974D-03
  0.21064587D-03  0.72730955D-04  0.24514562D-04  0.11298739D-04 -0.31682844D-04
 -0.10728037D-04 -0.82255784D-05 -0.41051401D-05  0.73172370D-05  0.56103932D-05
  0.27999794D-05 -0.38781404D-09 -0.29735121D-09 -0.14839909D-09  0.11497832D-03
  0.93552755D-04  0.15023330D-04  0.42023857D-08  0.25548837D-04 -0.87176766D-05
 -0.23501225D-04  0.22801999D-04  0.42994188D-08  0.54163961D-09  0.96031870D-05
  0.17716005D-04  0.28599125D-04  0.37227563D-04  0.31766347D-04  0.10968156D-04
  0.45033169D-05  0.20755746D-05 -0.58201279D-05  0.12641454D-05  0.96926651D-06
  0.48373192D-06  0.71271014D-05  0.54646093D-05  0.27272230D-05  0.59919427D-09
  0.45942416D-09  0.22928486D-09  0.45339755D-04  0.29060891D-05 -0.16927277D-04
  0.71885960D-10  0.10479895D-05  0.57557585D-06 -0.61146927D-05 -0.29575500D-05
  0.43906153D-09 -0.12496795D-08  0.96093424D-05  0.17727360D-04  0.28617456D-04
  0.37251425D-04  0.31786708D-04  0.10975187D-04  0.45002366D-05  0.20741549D-05
 -0.58161469D-05  0.12652902D-05  0.97014426D-06  0.48416998D-06 -0.71259235D-05
 -0.54637061D-05 -0.27267723D-05  0.36045322D-09  0.27637267D-09  0.13792933D-09
  0.45303754D-04  0.28795824D-05  0.16911467D-04  0.80490555D-09  0.10434819D-05
  0.57769351D-06 -0.61133604D-05  0.29546605D-05  0.61000683D-09  0.15333040D-08
 -0.19550774D-05 -0.36067360D-05 -0.58223902D-05 -0.75790220D-05 -0.64671932D-05
 -0.22329664D-05 -0.14609786D-05 -0.67336370D-06  0.18881821D-05 -0.14764253D-04
 -0.11320293D-04 -0.56496196D-05 -0.30702214D-05 -0.23540510D-05 -0.11748364D-05
 -0.12920446D-08 -0.99065783D-09 -0.49440769D-09 -0.36610490D-04  0.18742105D-04
  0.12814039D-04 -0.12727098D-08 -0.72183040D-05  0.13271453D-05 -0.22518973D-05
 -0.10992698D-04  0.32648812D-08  0.97647992D-09 -0.18130137D-05 -0.30752144D-05
 -0.35010229D-05  0.16949806D-06 -0.84529975D-04 -0.15594130D-03 -0.25173761D-03
 -0.32768757D-03 -0.27961639D-03 -0.96544821D-04  0.78659343D-05  0.36254020D-05
 -0.10166005D-04 -0.26395268D-05 -0.20238217D-05 -0.10100289D-05  0.43168043D-06
  0.33098517D-06  0.16518480D-06  0.11742573D-08  0.90034599D-09  0.44933575D-09
  0.32922622D-04  0.17873200D-04 -0.94549729D-05 -0.18015409D-08  0.65783516D-05
  0.12172590D-05 -0.33094054D-05 -0.12289837D-04 -0.22322511D-08  0.12569952D-08
 -0.19534809D-05 -0.36037909D-05 -0.58176359D-05 -0.75728333D-05 -0.64619124D-05
 -0.22311431D-05 -0.14614879D-05 -0.67359846D-06  0.18888404D-05 -0.14760775D-04
 -0.11317626D-04 -0.56482885D-05  0.30705510D-05  0.23543038D-05  0.11749626D-05
 -0.85750411D-09 -0.65747976D-09 -0.32812848D-09 -0.36610521D-04  0.18736108D-04
 -0.12812246D-04 -0.13307701D-08 -0.72196146D-05  0.13276643D-05 -0.22516847D-05
  0.10993812D-04  0.31698594D-08 -0.66716434D-09 -0.52675733D-05 -0.89348013D-05
 -0.10171955D-04  0.22512925D-05 -0.69043458D-04 -0.11711077D-03 -0.13332648D-03
  0.23185305D-03 -0.11046851D-04 -0.18737550D-04 -0.21332038D-04  0.50226683D-04
 -0.11045812D-04 -0.18735789D-04 -0.21330033D-04  0.50249157D-04 -0.69052768D-04
 -0.11712656D-03 -0.13334445D-03  0.23185269D-03 -0.52690277D-05 -0.89372682D-05
 -0.10174764D-04  0.22429582D-05 -0.18129495D-05 -0.30751055D-05 -0.35008989D-05
  0.17072486D-06 -0.84646279D-04 -0.15615586D-03 -0.25208397D-03 -0.32813843D-03
 -0.28000111D-03 -0.96677656D-04  0.78710577D-05  0.36277633D-05 -0.10172627D-04
 -0.26366726D-05 -0.20216333D-05 -0.10089367D-05 -0.43165345D-06 -0.33096449D-06
 -0.16517448D-06  0.14506307D-08  0.11122516D-08  0.55509151D-09  0.32941834D-04
  0.17859580D-04  0.94594899D-05 -0.20853854D-08  0.65807723D-05  0.12185292D-05
 -0.33076858D-05  0.12289580D-04 -0.23397717D-08 -0.12980448D-08 -0.54703164D-03
 -0.10091666D-02 -0.16291077D-02 -0.21206142D-02 -0.18095240D-02 -0.62478514D-03
  0.19613717D-04  0.90399442D-05 -0.25348947D-04 -0.50393638D-05 -0.38638645D-05
 -0.19283392D-05 -0.13243546D-05 -0.10154311D-05 -0.50677129D-06  0.38879353D-09
  0.29810222D-09  0.14877390D-09 -0.19203839D-05  0.16698219D-05 -0.40697710D-05
 -0.13251064D-09  0.12081765D-04  0.14269138D-04  0.10092099D-04 -0.26306261D-05
  0.10284168D-09 -0.32738961D-09 -0.52663000D-02 -0.97152951D-02 -0.15683499D-01
 -0.20415255D-01 -0.17420374D-01 -0.60148366D-02  0.19592986D-03  0.90303892D-04
 -0.25322154D-03 -0.31735926D-05 -0.24333095D-05 -0.12143920D-05 -0.21962865D-05
 -0.16839732D-05 -0.84042064D-06 -0.67871659D-10 -0.52039684D-10 -0.25971449D-10
  0.16876705D-04  0.21920602D-05  0.88185251D-06 -0.13853555D-09  0.10465635D-03
  0.10745601D-03  0.10529983D-03  0.34436615D-06  0.94879975D-10 -0.30048069D-10
  0.52251543D-06  0.88628507D-06  0.10090042D-05  0.26340347D-05 -0.54611858D-03
 -0.10074822D-02 -0.16263886D-02 -0.21170747D-02 -0.18065037D-02 -0.62374230D-03
  0.19585347D-04  0.90268688D-05 -0.25312282D-04 -0.50337333D-05 -0.38595474D-05
 -0.19261847D-05  0.13212912D-05  0.10130823D-05  0.50559907D-06  0.56594592D-09
  0.43393143D-09  0.21656220D-09 -0.18808138D-05  0.16700183D-05  0.40853584D-05
 -0.37892751D-09  0.12058527D-04  0.14246596D-04  0.10069126D-04  0.26323041D-05
  0.23933966D-10  0.38882472D-09 -0.52588609D-02 -0.97015715D-02 -0.15661345D-01
 -0.20386417D-01 -0.17395767D-01 -0.60063402D-02  0.19564750D-03  0.90173756D-04
 -0.25285662D-03 -0.31716151D-05 -0.24317933D-05 -0.12136353D-05  0.22036636D-05
  0.16896295D-05  0.84324352D-06  0.12102456D-09  0.92793955D-10  0.46310687D-10
  0.16801647D-04  0.21760881D-05 -0.89600723D-06 -0.59891966D-10  0.10451513D-03
  0.10731783D-03  0.10515506D-03 -0.34828702D-06 -0.22667270D-10 -0.75417013D-10
  0.10871590D-05  0.18440274D-05  0.20993600D-05 -0.23437245D-05  0.52263883D-06
  0.88649437D-06  0.10092425D-05  0.26377246D-05  0.10854437D-05  0.18411179D-05
  0.20960477D-05 -0.23439371D-05
MO    2     MO 0.0        OCC NO =    1.0000000  ORB. ENERGY =  -10.046433
  0.52622961D-02  0.97079087D-02  0.15671575D-01  0.20399734D-01  0.17407130D-01
  0.60102636D-02 -0.19346860D-03 -0.89169501D-04  0.25004059D-03  0.31353785D-05
  0.24040094D-05  0.11997692D-05  0.36771263D-05  0.28193872D-05  0.14070718D-05
  0.17809063D-09  0.13654860D-09  0.68147320D-10 -0.21683950D-04  0.14798698D-05
 -0.20794189D-05  0.12129407D-09 -0.10475695D-03 -0.10763784D-03 -0.10980423D-03
 -0.10840449D-05  0.32527669D-09  0.11557993D-09  0.54248537D-03  0.10007796D-02
  0.16155685D-02  0.21029902D-02  0.17944854D-02  0.61959267D-03 -0.16125876D-04
 -0.74324017D-05  0.20841230D-04 -0.32297122D-05 -0.24763385D-05 -0.12358664D-05
  0.48615557D-05  0.37275326D-05  0.18603000D-05  0.37376915D-09  0.28658247D-09
  0.14302474D-09  0.11411706D-04  0.29417420D-05 -0.83221271D-05 -0.24495262D-09
 -0.15409286D-04 -0.11191971D-04 -0.15876497D-04  0.19669406D-05  0.32701136D-09
  0.52772032D-09  0.55554234D-04  0.10248671D-03  0.16544533D-03  0.21536067D-03
  0.18376765D-03  0.63450552D-04  0.34222929D-05  0.15773317D-05 -0.44230026D-05
  0.22186618D-06  0.17011292D-06  0.84898268D-07  0.61435112D-06  0.47104548D-06
  0.23508471D-06 -0.14423750D-08 -0.11059216D-08 -0.55193241D-09  0.28528679D-04
 -0.16371008D-04  0.79208997D-05 -0.30486537D-09  0.41733904D-05 -0.16740258D-05
 -0.69591672D-05 -0.10974741D-04  0.59248290D-09 -0.45947208D-10  0.55551451D-04
  0.10248158D-03  0.16543705D-03  0.21534988D-03  0.18375844D-03  0.63447374D-04
  0.34248637D-05  0.15785166D-05 -0.44263252D-05  0.21276314D-06  0.16313328D-06
  0.81414939D-07 -0.61282711D-06 -0.46987696D-06 -0.23450153D-06 -0.12856437D-08
 -0.98575005D-09 -0.49195836D-09  0.28637723D-04 -0.16446914D-04 -0.79707452D-05
 -0.19186612D-09  0.41815775D-05 -0.16813016D-05 -0.69573393D-05  0.10983976D-04
  0.51532716D-09  0.10312360D-09  0.54255598D-03  0.10009098D-02  0.16157788D-02
  0.21032639D-02  0.17947189D-02  0.61967332D-03 -0.16130722D-04 -0.74346350D-05
  0.20847492D-04 -0.32310835D-05 -0.24773899D-05 -0.12363912D-05 -0.48621472D-05
 -0.37279861D-05 -0.18605263D-05  0.10828779D-09  0.83028208D-10  0.41436895D-10
  0.11422949D-04  0.29551269D-05  0.83402335D-05 -0.38587369D-10 -0.15416763D-04
 -0.11188671D-04 -0.15875823D-04 -0.19696033D-05  0.32824353D-09 -0.42142766D-09
  0.52628765D-02  0.97089796D-02  0.15673303D-01  0.20401984D-01  0.17409050D-01
  0.60109266D-02 -0.19348915D-03 -0.89178973D-04  0.25006715D-03  0.31375964D-05
  0.24057099D-05  0.12006178D-05 -0.36760613D-05 -0.28185707D-05 -0.14066643D-05
  0.15710279D-09  0.12045645D-09  0.60116212D-10 -0.21699847D-04  0.14847457D-05
  0.20846348D-05  0.12160641D-09 -0.10476786D-03 -0.10764797D-03 -0.10981750D-03
  0.10835372D-05  0.34077949D-09 -0.91406449D-10 -0.16776581D-06 -0.30949517D-06
 -0.49962116D-06 -0.65035830D-06 -0.55495192D-06 -0.19161156D-06 -0.77091381D-06
 -0.35531347D-06  0.99633606D-06  0.14454744D-04  0.11082981D-04  0.55311843D-05
 -0.32813895D-05 -0.25159613D-05 -0.12556410D-05  0.30129843D-08  0.23101653D-08
  0.11529344D-08 -0.33286491D-04 -0.16078662D-04  0.12332014D-04 -0.10118721D-08
 -0.65113570D-05  0.10955756D-05 -0.29129281D-05  0.10358848D-04 -0.86901249D-09
 -0.64576691D-09 -0.16604851D-06 -0.30632708D-06 -0.49450688D-06 -0.64370103D-06
 -0.54927125D-06 -0.18965016D-06 -0.77938690D-06 -0.35921871D-06  0.10072868D-05
  0.14477752D-04  0.11100622D-04  0.55399885D-05  0.32695589D-05  0.25068904D-05
  0.12511140D-05  0.25704927D-08  0.19708908D-08  0.98361263D-09 -0.33525778D-04
 -0.16130627D-04 -0.12463412D-04 -0.97377152D-09 -0.65012200D-05  0.10722714D-05
 -0.29087924D-05 -0.10345888D-04 -0.58638667D-09  0.43784019D-09  0.99140563D-05
  0.18289498D-04  0.29524921D-04  0.38432674D-04  0.32794670D-04  0.11323212D-04
  0.46152430D-05  0.21271613D-05 -0.59647823D-05 -0.12489435D-05 -0.95761064D-06
 -0.47791483D-06  0.73262340D-05  0.56172916D-05  0.28034222D-05  0.28075501D-10
  0.21526513D-10  0.10743239D-10  0.46469681D-04 -0.25900155D-05 -0.17322873D-04
 -0.17999088D-08  0.10535503D-05  0.60534385D-06 -0.62803400D-05  0.28514308D-05
  0.33067809D-08  0.49771674D-08  0.98529978D-05  0.18176857D-04  0.29343083D-04
  0.38195976D-04  0.32592695D-04  0.11253474D-04  0.46448853D-05  0.21408234D-05
 -0.60030923D-05 -0.12268850D-05 -0.94069760D-06 -0.46947403D-06 -0.73415595D-05
 -0.56290422D-05 -0.28092865D-05  0.37046589D-09  0.28404975D-09  0.14176073D-09
  0.46824831D-04 -0.30308508D-05  0.17503386D-04 -0.21463209D-08  0.11021129D-05
  0.58100803D-06 -0.62924249D-05 -0.28955263D-05  0.37388827D-08 -0.51980934D-08
  0.63555425D-04  0.11724735D-03  0.18927357D-03  0.24637796D-03  0.21023476D-03
  0.72589009D-04  0.24449727D-04  0.11268857D-04 -0.31599051D-04  0.10367294D-04
  0.79489836D-05  0.39670999D-05 -0.73920432D-05 -0.56677499D-05 -0.28286044D-05
 -0.27252185D-08 -0.20895247D-08 -0.10428193D-08  0.11345745D-03 -0.93135081D-04
 -0.14447695D-04  0.76886973D-08  0.25337419D-04 -0.87160580D-05 -0.23549488D-04
  0.22490223D-04 -0.15752829D-07 -0.83940645D-08 -0.53319787D-05 -0.90440451D-05