 Generated by Multiwfn
GAUSSIAN            119 MOL ORBITALS    552 PRIMITIVES       30 NUCLEI
  C    1    (CENTRE  1)   9.20257050  1.34756945  0.00022410  CHARGE =  6.0
  C    2    (CENTRE  2)   6.98816372  2.65291325  0.00013277  CHARGE =  6.0
  C    3    (CENTRE  3)   4.61238757  1.36687958  0.00001064  CHARGE =  6.0
  C    4    (CENTRE  4)   4.61238780 -1.36687410 -0.00002392  CHARGE =  6.0
  C    5    (CENTRE  5)   6.98816725 -2.65290928  0.00007115  CHARGE =  6.0
  C    6    (CENTRE  6)   9.20257182 -1.34756259  0.00018372  CHARGE =  6.0
  C    7    (CENTRE  7)   2.32613219  2.64781725 -0.00010050  CHARGE =  6.0
  C    8    (CENTRE  8)   2.32613620 -2.64781526 -0.00011614  CHARGE =  6.0
  C    9    (CENTRE  9)  -0.00001812 -1.36719057 -0.00021237  CHARGE =  6.0
  C   10    (CENTRE 10)  -0.00002045  1.36718912 -0.00024279  CHARGE =  6.0
  C   11    (CENTRE 11)  -2.32613342  2.64778244 -0.00033546  CHARGE =  6.0
  H   12    (CENTRE 12)  -2.32696913  4.69539413 -0.00073367  CHARGE =  1.0
  C   13    (CENTRE 13)  -4.61243018 -1.36688374 -0.00009776  CHARGE =  6.0
  C   14    (CENTRE 14)  -2.32612673 -2.64780863 -0.00029654  CHARGE =  6.0
  H   15    (CENTRE 15)   2.32683540  4.69541675 -0.00001897  CHARGE =  1.0
  H   16    (CENTRE 16)  10.98539214  2.34807726  0.00032097  CHARGE =  1.0
  H   17    (CENTRE 17)   6.98762968  4.69902231  0.00017361  CHARGE =  1.0
  H   18    (CENTRE 18)   6.98763299 -4.69901787  0.00005097  CHARGE =  1.0
  H   19    (CENTRE 19)  10.98539513 -2.34806895  0.00024423  CHARGE =  1.0
  H   20    (CENTRE 20)   2.32684314 -4.69541588 -0.00003316  CHARGE =  1.0
  H   21    (CENTRE 21)  -2.32696428 -4.69541042 -0.00070141  CHARGE =  1.0
  C   22    (CENTRE 22)  -4.61245029  1.36689428 -0.00012941  CHARGE =  6.0
  C   23    (CENTRE 23)  -6.98810735  2.65287929  0.00012340  CHARGE =  6.0
  C   24    (CENTRE 24)  -9.20257617  1.34751760  0.00024642  CHARGE =  6.0
  H   25    (CENTRE 25)  -6.98761419  4.69899153  0.00030963  CHARGE =  1.0
  C   26    (CENTRE 26)  -6.98808605 -2.65287449  0.00016065  CHARGE =  6.0
  C   27    (CENTRE 27)  -9.20255642 -1.34751826  0.00025662  CHARGE =  6.0
  H   28    (CENTRE 28) -10.98534205  2.34812339  0.00040888  CHARGE =  1.0
  H   29    (CENTRE 29)  -6.98760440 -4.69898747  0.00047846  CHARGE =  1.0
  H   30    (CENTRE 30) -10.98530563 -2.34815684  0.00037290  CHARGE =  1.0
CENTRE ASSIGNMENTS    1  1  1  1  1  1  1  1  1  1  1  1  1  1  1  1  1  1  1  1
CENTRE ASSIGNMENTS    1  1  1  1  1  1  1  1  2  2  2  2  2  2  2  2  2  2  2  2
CENTRE ASSIGNMENTS    2  2  2  2  2  2  2  2  2  2  2  2  2  2  2  2  3  3  3  3
CENTRE ASSIGNMENTS    3  3  3  3  3  3  3  3  3  3  3  3  3  3  3  3  3  3  3  3
CENTRE ASSIGNMENTS    3  3  3  3  4  4  4  4  4  4  4  4  4  4  4  4  4  4  4  4
CENTRE ASSIGNMENTS    4  4  4  4  4  4  4  4  4  4  4  4  5  5  5  5  5  5  5  5
CENTRE ASSIGNMENTS    5  5  5  5  5  5  5  5  5  5  5  5  5  5  5  5  5  5  5  5
CENTRE ASSIGNMENTS    6  6  6  6  6  6  6  6  6  6  6  6  6  6  6  6  6  6  6  6
CENTRE ASSIGNMENTS    6  6  6  6  6  6  6  6  7  7  7  7  7  7  7  7  7  7  7  7
CENTRE ASSIGNMENTS    7  7  7  7  7  7  7  7  7  7  7  7  7  7  7  7  8  8  8  8
CENTRE ASSIGNMENTS    8  8  8  8  8  8  8  8  8  8  8  8  8  8  8  8  8  8  8  8
CENTRE ASSIGNMENTS    8  8  8  8  9  9  9  9  9  9  9  9  9  9  9  9  9  9  9  9
CENTRE ASSIGNMENTS    9  9  9  9  9  9  9  9  9  9  9  9 10 10 10 10 10 10 10 10
CENTRE ASSIGNMENTS   10 10 10 10 10 10 10 10 10 10 10 10 10 10 10 10 10 10 10 10
CENTRE ASSIGNMENTS   11 11 11 11 11 11 11 11 11 11 11 11 11 11 11 11 11 11 11 11
CENTRE ASSIGNMENTS   11 11 11 11 11 11 11 11 12 12 12 12 13 13 13 13 13 13 13 13
CENTRE ASSIGNMENTS   13 13 13 13 13 13 13 13 13 13 13 13 13 13 13 13 13 13 13 13
CENTRE ASSIGNMENTS   14 14 14 14 14 14 14 14 14 14 14 14 14 14 14 14 14 14 14 14
CENTRE ASSIGNMENTS   14 14 14 14 14 14 14 14 15 15 15 15 16 16 16 16 17 17 17 17
CENTRE ASSIGNMENTS   18 18 18 18 19 19 19 19 20 20 20 20 21 21 21 21 22 22 22 22
CENTRE ASSIGNMENTS   22 22 22 22 22 22 22 22 22 22 22 22 22 22 22 22 22 22 22 22
CENTRE ASSIGNMENTS   22 22 22 22 23 23 23 23 23 23 23 23 23 23 23 23 23 23 23 23
CENTRE ASSIGNMENTS   23 23 23 23 23 23 23 23 23 23 23 23 24 24 24 24 24 24 24 24
CENTRE ASSIGNMENTS   24 24 24 24 24 24 24 24 24 24 24 24 24 24 24 24 24 24 24 24
CENTRE ASSIGNMENTS   25 25 25 25 26 26 26 26 26 26 26 26 26 26 26 26 26 26 26 26
CENTRE ASSIGNMENTS   26 26 26 26 26 26 26 26 26 26 26 26 27 27 27 27 27 27 27 27
CENTRE ASSIGNMENTS   27 27 27 27 27 27 27 27 27 27 27 27 27 27 27 27 27 27 27 27
CENTRE ASSIGNMENTS   28 28 28 28 29 29 29 29 30 30 30 30
TYPE ASSIGNMENTS      1  1  1  1  1  1  1  1  1  2  2  2  3  3  3  4  4  4  1  2
TYPE ASSIGNMENTS      3  4  5  6  7  8  9 10  1  1  1  1  1  1  1  1  1  2  2  2
TYPE ASSIGNMENTS      3  3  3  4  4  4  1  2  3  4  5  6  7  8  9 10  1  1  1  1
TYPE ASSIGNMENTS      1  1  1  1  1  2  2  2  3  3  3  4  4  4  1  2  3  4  5  6
TYPE ASSIGNMENTS      7  8  9 10  1  1  1  1  1  1  1  1  1  2  2  2  3  3  3  4
TYPE ASSIGNMENTS      4  4  1  2  3  4  5  6  7  8  9 10  1  1  1  1  1  1  1  1
TYPE ASSIGNMENTS      1  2  2  2  3  3  3  4  4  4  1  2  3  4  5  6  7  8  9 10
TYPE ASSIGNMENTS      1  1  1  1  1  1  1  1  1  2  2  2  3  3  3  4  4  4  1  2
TYPE ASSIGNMENTS      3  4  5  6  7  8  9 10  1  1  1  1  1  1  1  1  1  2  2  2
TYPE ASSIGNMENTS      3  3  3  4  4  4  1  2  3  4  5  6  7  8  9 10  1  1  1  1
TYPE ASSIGNMENTS      1  1  1  1  1  2  2  2  3  3  3  4  4  4  1  2  3  4  5  6
TYPE ASSIGNMENTS      7  8  9 10  1  1  1  1  1  1  1  1  1  2  2  2  3  3  3  4
TYPE ASSIGNMENTS      4  4  1  2  3  4  5  6  7  8  9 10  1  1  1  1  1  1  1  1
TYPE ASSIGNMENTS      1  2  2  2  3  3  3  4  4  4  1  2  3  4  5  6  7  8  9 10
TYPE ASSIGNMENTS      1  1  1  1  1  1  1  1  1  2  2  2  3  3  3  4  4  4  1  2
TYPE ASSIGNMENTS      3  4  5  6  7  8  9 10  1  1  1  1  1  1  1  1  1  1  1  1
TYPE ASSIGNMENTS      1  2  2  2  3  3  3  4  4  4  1  2  3  4  5  6  7  8  9 10
TYPE ASSIGNMENTS      1  1  1  1  1  1  1  1  1  2  2  2  3  3  3  4  4  4  1  2
TYPE ASSIGNMENTS      3  4  5  6  7  8  9 10  1  1  1  1  1  1  1  1  1  1  1  1
TYPE ASSIGNMENTS      1  1  1  1  1  1  1  1  1  1  1  1  1  1  1  1  1  1  1  1
TYPE ASSIGNMENTS      1  1  1  1  1  2  2  2  3  3  3  4  4  4  1  2  3  4  5  6
TYPE ASSIGNMENTS      7  8  9 10  1  1  1  1  1  1  1  1  1  2  2  2  3  3  3  4
TYPE ASSIGNMENTS      4  4  1  2  3  4  5  6  7  8  9 10  1  1  1  1  1  1  1  1
TYPE ASSIGNMENTS      1  2  2  2  3  3  3  4  4  4  1  2  3  4  5  6  7  8  9 10
TYPE ASSIGNMENTS      1  1  1  1  1  1  1  1  1  1  1  1  1  2  2  2  3  3  3  4
TYPE ASSIGNMENTS      4  4  1  2  3  4  5  6  7  8  9 10  1  1  1  1  1  1  1  1
TYPE ASSIGNMENTS      1  2  2  2  3  3  3  4  4  4  1  2  3  4  5  6  7  8  9 10
TYPE ASSIGNMENTS      1  1  1  1  1  1  1  1  1  1  1  1
EXPONENTS  0.3047525D+04 0.4573695D+03 0.1039487D+03 0.2921016D+02 0.9286663D+01
EXPONENTS  0.3163927D+01 0.7868272D+01 0.1881289D+01 0.5442493D+00 0.7868272D+01
EXPONENTS  0.1881289D+01 0.5442493D+00 0.7868272D+01 0.1881289D+01 0.5442493D+00
EXPONENTS  0.7868272D+01 0.1881289D+01 0.5442493D+00 0.1687145D+00 0.1687145D+00
EXPONENTS  0.1687145D+00 0.1687145D+00 0.8000000D+00 0.8000000D+00 0.8000000D+00
EXPONENTS  0.8000000D+00 0.8000000D+00 0.8000000D+00 0.3047525D+04 0.4573695D+03
EXPONENTS  0.1039487D+03 0.2921016D+02 0.9286663D+01 0.3163927D+01 0.7868272D+01
EXPONENTS  0.1881289D+01 0.5442493D+00 0.7868272D+01 0.1881289D+01 0.5442493D+00
EXPONENTS  0.7868272D+01 0.1881289D+01 0.5442493D+00 0.7868272D+01 0.1881289D+01
EXPONENTS  0.5442493D+00 0.1687145D+00 0.1687145D+00 0.1687145D+00 0.1687145D+00
EXPONENTS  0.8000000D+00 0.8000000D+00 0.8000000D+00 0.8000000D+00 0.8000000D+00
EXPONENTS  0.8000000D+00 0.3047525D+04 0.4573695D+03 0.1039487D+03 0.2921016D+02
EXPONENTS  0.9286663D+01 0.3163927D+01 0.7868272D+01 0.1881289D+01 0.5442493D+00
EXPONENTS  0.7868272D+01 0.1881289D+01 0.5442493D+00 0.7868272D+01 0.1881289D+01
EXPONENTS  0.5442493D+00 0.7868272D+01 0.1881289D+01 0.5442493D+00 0.1687145D+00
EXPONENTS  0.1687145D+00 0.1687145D+00 0.1687145D+00 0.8000000D+00 0.8000000D+00
EXPONENTS  0.8000000D+00 0.8000000D+00 0.8000000D+00 0.8000000D+00 0.3047525D+04
EXPONENTS  0.4573695D+03 0.1039487D+03 0.2921016D+02 0.9286663D+01 0.3163927D+01
EXPONENTS  0.7868272D+01 0.1881289D+01 0.5442493D+00 0.7868272D+01 0.1881289D+01
EXPONENTS  0.5442493D+00 0.7868272D+01 0.1881289D+01 0.5442493D+00 0.7868272D+01
EXPONENTS  0.1881289D+01 0.5442493D+00 0.1687145D+00 0.1687145D+00 0.1687145D+00
EXPONENTS  0.1687145D+00 0.8000000D+00 0.8000000D+00 0.8000000D+00 0.8000000D+00
EXPONENTS  0.8000000D+00 0.8000000D+00 0.3047525D+04 0.4573695D+03 0.1039487D+03
EXPONENTS  0.2921016D+02 0.9286663D+01 0.3163927D+01 0.7868272D+01 0.1881289D+01
EXPONENTS  0.5442493D+00 0.7868272D+01 0.1881289D+01 0.5442493D+00 0.7868272D+01
EXPONENTS  0.1881289D+01 0.5442493D+00 0.7868272D+01 0.1881289D+01 0.5442493D+00
EXPONENTS  0.1687145D+00 0.1687145D+00 0.1687145D+00 0.1687145D+00 0.8000000D+00
EXPONENTS  0.8000000D+00 0.8000000D+00 0.8000000D+00 0.8000000D+00 0.8000000D+00
EXPONENTS  0.3047525D+04 0.4573695D+03 0.1039487D+03 0.2921016D+02 0.9286663D+01
EXPONENTS  0.3163927D+01 0.7868272D+01 0.1881289D+01 0.5442493D+00 0.7868272D+01
EXPONENTS  0.1881289D+01 0.5442493D+00 0.7868272D+01 0.1881289D+01 0.5442493D+00
EXPONENTS  0.7868272D+01 0.1881289D+01 0.5442493D+00 0.1687145D+00 0.1687145D+00
EXPONENTS  0.1687145D+00 0.1687145D+00 0.8000000D+00 0.8000000D+00 0.8000000D+00
EXPONENTS  0.8000000D+00 0.8000000D+00 0.8000000D+00 0.3047525D+04 0.4573695D+03
EXPONENTS  0.1039487D+03 0.2921016D+02 0.9286663D+01 0.3163927D+01 0.7868272D+01
EXPONENTS  0.1881289D+01 0.5442493D+00 0.7868272D+01 0.1881289D+01 0.5442493D+00
EXPONENTS  0.7868272D+01 0.1881289D+01 0.5442493D+00 0.7868272D+01 0.1881289D+01
EXPONENTS  0.5442493D+00 0.1687145D+00 0.1687145D+00 0.1687145D+00 0.1687145D+00
EXPONENTS  0.8000000D+00 0.8000000D+00 0.8000000D+00 0.8000000D+00 0.8000000D+00
EXPONENTS  0.8000000D+00 0.3047525D+04 0.4573695D+03 0.1039487D+03 0.2921016D+02
EXPONENTS  0.9286663D+01 0.3163927D+01 0.7868272D+01 0.1881289D+01 0.5442493D+00
EXPONENTS  0.7868272D+01 0.1881289D+01 0.5442493D+00 0.7868272D+01 0.1881289D+01
EXPONENTS  0.5442493D+00 0.7868272D+01 0.1881289D+01 0.5442493D+00 0.1687145D+00
EXPONENTS  0.1687145D+00 0.1687145D+00 0.1687145D+00 0.8000000D+00 0.8000000D+00
EXPONENTS  0.8000000D+00 0.8000000D+00 0.8000000D+00 0.8000000D+00 0.3047525D+04
EXPONENTS  0.4573695D+03 0.1039487D+03 0.2921016D+02 0.9286663D+01 0.3163927D+01
EXPONENTS  0.7868272D+01 0.1881289D+01 0.5442493D+00 0.7868272D+01 0.1881289D+01
EXPONENTS  0.5442493D+00 0.7868272D+01 0.1881289D+01 0.5442493D+00 0.7868272D+01
EXPONENTS  0.1881289D+01 0.5442493D+00 0.1687145D+00 0.1687145D+00 0.1687145D+00
EXPONENTS  0.1687145D+00 0.8000000D+00 0.8000000D+00 0.8000000D+00 0.8000000D+00
EXPONENTS  0.8000000D+00 0.8000000D+00 0.3047525D+04 0.4573695D+03 0.1039487D+03
EXPONENTS  0.2921016D+02 0.9286663D+01 0.3163927D+01 0.7868272D+01 0.1881289D+01
EXPONENTS  0.5442493D+00 0.7868272D+01 0.1881289D+01 0.5442493D+00 0.7868272D+01
EXPONENTS  0.1881289D+01 0.5442493D+00 0.7868272D+01 0.1881289D+01 0.5442493D+00
EXPONENTS  0.1687145D+00 0.1687145D+00 0.1687145D+00 0.1687145D+00 0.8000000D+00
EXPONENTS  0.8000000D+00 0.8000000D+00 0.8000000D+00 0.8000000D+00 0.8000000D+00
EXPONENTS  0.3047525D+04 0.4573695D+03 0.1039487D+03 0.2921016D+02 0.9286663D+01
EXPONENTS  0.3163927D+01 0.7868272D+01 0.1881289D+01 0.5442493D+00 0.7868272D+01
EXPONENTS  0.1881289D+01 0.5442493D+00 0.7868272D+01 0.1881289D+01 0.5442493D+00
EXPONENTS  0.7868272D+01 0.1881289D+01 0.5442493D+00 0.1687145D+00 0.1687145D+00
EXPONENTS  0.1687145D+00 0.1687145D+00 0.8000000D+00 0.8000000D+00 0.8000000D+00
EXPONENTS  0.8000000D+00 0.8000000D+00 0.8000000D+00 0.1873114D+02 0.2825394D+01
EXPONENTS  0.6401217D+00 0.1612778D+00 0.3047525D+04 0.4573695D+03 0.1039487D+03
EXPONENTS  0.2921016D+02 0.9286663D+01 0.3163927D+01 0.7868272D+01 0.1881289D+01
EXPONENTS  0.5442493D+00 0.7868272D+01 0.1881289D+01 0.5442493D+00 0.7868272D+01
EXPONENTS  0.1881289D+01 0.5442493D+00 0.7868272D+01 0.1881289D+01 0.5442493D+00
EXPONENTS  0.1687145D+00 0.1687145D+00 0.1687145D+00 0.1687145D+00 0.8000000D+00
EXPONENTS  0.8000000D+00 0.8000000D+00 0.8000000D+00 0.8000000D+00 0.8000000D+00
EXPONENTS  0.3047525D+04 0.4573695D+03 0.1039487D+03 0.2921016D+02 0.9286663D+01
EXPONENTS  0.3163927D+01 0.7868272D+01 0.1881289D+01 0.5442493D+00 0.7868272D+01
EXPONENTS  0.1881289D+01 0.5442493D+00 0.7868272D+01 0.1881289D+01 0.5442493D+00
EXPONENTS  0.7868272D+01 0.1881289D+01 0.5442493D+00 0.1687145D+00 0.1687145D+00
EXPONENTS  0.1687145D+00 0.1687145D+00 0.8000000D+00 0.8000000D+00 0.8000000D+00
EXPONENTS  0.8000000D+00 0.8000000D+00 0.8000000D+00 0.1873114D+02 0.2825394D+01
EXPONENTS  0.6401217D+00 0.1612778D+00 0.1873114D+02 0.2825394D+01 0.6401217D+00
EXPONENTS  0.1612778D+00 0.1873114D+02 0.2825394D+01 0.6401217D+00 0.1612778D+00
EXPONENTS  0.1873114D+02 0.2825394D+01 0.6401217D+00 0.1612778D+00 0.1873114D+02
EXPONENTS  0.2825394D+01 0.6401217D+00 0.1612778D+00 0.1873114D+02 0.2825394D+01
EXPONENTS  0.6401217D+00 0.1612778D+00 0.1873114D+02 0.2825394D+01 0.6401217D+00
EXPONENTS  0.1612778D+00 0.3047525D+04 0.4573695D+03 0.1039487D+03 0.2921016D+02
EXPONENTS  0.9286663D+01 0.3163927D+01 0.7868272D+01 0.1881289D+01 0.5442493D+00
EXPONENTS  0.7868272D+01 0.1881289D+01 0.5442493D+00 0.7868272D+01 0.1881289D+01
EXPONENTS  0.5442493D+00 0.7868272D+01 0.1881289D+01 0.5442493D+00 0.1687145D+00
EXPONENTS  0.1687145D+00 0.1687145D+00 0.1687145D+00 0.8000000D+00 0.8000000D+00
EXPONENTS  0.8000000D+00 0.8000000D+00 0.8000000D+00 0.8000000D+00 0.3047525D+04
EXPONENTS  0.4573695D+03 0.1039487D+03 0.2921016D+02 0.9286663D+01 0.3163927D+01
EXPONENTS  0.7868272D+01 0.1881289D+01 0.5442493D+00 0.7868272D+01 0.1881289D+01
EXPONENTS  0.5442493D+00 0.7868272D+01 0.1881289D+01 0.5442493D+00 0.7868272D+01
EXPONENTS  0.1881289D+01 0.5442493D+00 0.1687145D+00 0.1687145D+00 0.1687145D+00
EXPONENTS  0.1687145D+00 0.8000000D+00 0.8000000D+00 0.8000000D+00 0.8000000D+00
EXPONENTS  0.8000000D+00 0.8000000D+00 0.3047525D+04 0.4573695D+03 0.1039487D+03
EXPONENTS  0.2921016D+02 0.9286663D+01 0.3163927D+01 0.7868272D+01 0.1881289D+01
EXPONENTS  0.5442493D+00 0.7868272D+01 0.1881289D+01 0.5442493D+00 0.7868272D+01
EXPONENTS  0.1881289D+01 0.5442493D+00 0.7868272D+01 0.1881289D+01 0.5442493D+00
EXPONENTS  0.1687145D+00 0.1687145D+00 0.1687145D+00 0.1687145D+00 0.8000000D+00
EXPONENTS  0.8000000D+00 0.8000000D+00 0.8000000D+00 0.8000000D+00 0.8000000D+00
EXPONENTS  0.1873114D+02 0.2825394D+01 0.6401217D+00 0.1612778D+00 0.3047525D+04
EXPONENTS  0.4573695D+03 0.1039487D+03 0.2921016D+02 0.9286663D+01 0.3163927D+01
EXPONENTS  0.7868272D+01 0.1881289D+01 0.5442493D+00 0.7868272D+01 0.1881289D+01
EXPONENTS  0.5442493D+00 0.7868272D+01 0.1881289D+01 0.5442493D+00 0.7868272D+01
EXPONENTS  0.1881289D+01 0.5442493D+00 0.1687145D+00 0.1687145D+00 0.1687145D+00
EXPONENTS  0.1687145D+00 0.8000000D+00 0.8000000D+00 0.8000000D+00 0.8000000D+00
EXPONENTS  0.8000000D+00 0.8000000D+00 0.3047525D+04 0.4573695D+03 0.1039487D+03
EXPONENTS  0.2921016D+02 0.9286663D+01 0.3163927D+01 0.7868272D+01 0.1881289D+01
EXPONENTS  0.5442493D+00 0.7868272D+01 0.1881289D+01 0.5442493D+00 0.7868272D+01
EXPONENTS  0.1881289D+01 0.5442493D+00 0.7868272D+01 0.1881289D+01 0.5442493D+00
EXPONENTS  0.1687145D+00 0.1687145D+00 0.1687145D+00 0.1687145D+00 0.8000000D+00
EXPONENTS  0.8000000D+00 0.8000000D+00 0.8000000D+00 0.8000000D+00 0.8000000D+00
EXPONENTS  0.1873114D+02 0.2825394D+01 0.6401217D+00 0.1612778D+00 0.1873114D+02
EXPONENTS  0.2825394D+01 0.6401217D+00 0.1612778D+00 0.1873114D+02 0.2825394D+01
EXPONENTS  0.6401217D+00 0.1612778D+00
MO    1     MO 0.0        OCC NO =    1.0000000  ORB. ENERGY =  -10.356618
  0.20358471D-05  0.37557404D-05  0.60629296D-05  0.78921329D-05  0.67343713D-05
  0.23252166D-05 -0.81506225D-05 -0.37566145D-05  0.10533939D-04 -0.16366566D-05
 -0.12548844D-05 -0.62627528D-06  0.14977220D-04  0.11483582D-04  0.57311124D-05
 -0.37570160D-09 -0.28806416D-09 -0.14376420D-09 -0.53344367D-04  0.37215964D-04
 -0.21186813D-04  0.27300404D-08 -0.82863061D-05  0.16755909D-04  0.42658728D-05
 -0.23876617D-04 -0.29452778D-08  0.24318285D-09 -0.88262883D-04 -0.16282778D-03
 -0.26285453D-03 -0.34215850D-03 -0.29196447D-03 -0.10080831D-03 -0.43685103D-05
 -0.20134424D-05  0.56459026D-05  0.20256672D-04  0.15531531D-04  0.77513227D-05
  0.44094027D-04  0.33808503D-04  0.16872813D-04  0.46708422D-08  0.35813055D-08
  0.17873225D-08 -0.20802898D-03  0.10826756D-03  0.42827645D-05  0.16377356D-08
 -0.58190172D-04 -0.21355287D-04 -0.51434335D-05  0.10911569D-05 -0.16378778D-08
  0.34656160D-08 -0.92582333D-02 -0.17079633D-01 -0.27571823D-01 -0.35890321D-01
 -0.30625276D-01 -0.10574172D-01  0.17800115D-03  0.82040566D-04 -0.23005031D-03
 -0.23838962D-03 -0.18278204D-03 -0.91221049D-04  0.10478504D-03  0.80342522D-04
  0.40096549D-04 -0.18475211D-07 -0.14165620D-07 -0.70696373D-08 -0.12844575D-02
  0.66128701D-03  0.25213287D-03  0.40953092D-07  0.37246808D-03  0.37296706D-03
  0.32496901D-03 -0.10285591D-03 -0.86582933D-09 -0.84199827D-08  0.91112736D-02
  0.16808521D-01  0.27134164D-01  0.35320619D-01  0.30139148D-01  0.10406324D-01
 -0.17427675D-03 -0.80323993D-04  0.22523686D-03  0.23544452D-03  0.18052392D-03
  0.90094088D-04  0.10338280D-03  0.79267374D-04  0.39559975D-04  0.15834222D-07
  0.12140677D-07  0.60590486D-08  0.12749370D-02 -0.65744681D-03  0.25380824D-03
 -0.27351817D-07 -0.36734710D-03 -0.36781841D-03 -0.32065672D-03 -0.10196839D-03
 -0.76451454D-08 -0.17089676D-08  0.86933314D-04  0.16037499D-03  0.25889496D-03
  0.33700431D-03  0.28756639D-03  0.99289764D-04  0.41091083D-05  0.18938843D-05
 -0.53106491D-05 -0.20149342D-04 -0.15449237D-04 -0.77102521D-05  0.43983645D-04
  0.33723869D-04  0.16830574D-04 -0.10032904D-08 -0.76925943D-09 -0.38391437D-09
  0.20755389D-03 -0.10899201D-03  0.37158482D-05 -0.42063225D-08  0.57951364D-04
  0.20923653D-04  0.53809829D-05  0.12329751D-05  0.31820187D-08  0.48400426D-09
 -0.19399655D-05 -0.35788576D-05 -0.57773858D-05 -0.75204397D-05 -0.64172049D-05
 -0.22157066D-05  0.79466500D-05  0.36626037D-05 -0.10270323D-04  0.12121793D-05
  0.92942219D-06  0.46384681D-06  0.15169526D-04  0.11631030D-04  0.58046992D-05
  0.14409548D-08  0.11048328D-08  0.55138899D-09  0.54065454D-04 -0.37067311D-04
 -0.21578322D-04 -0.27960278D-08  0.81723564D-05 -0.16644037D-04 -0.39848755D-05
 -0.23626449D-04  0.15862004D-08 -0.23728572D-08 -0.26108043D+00 -0.48164242D+00
 -0.77752020D+00 -0.10121003D+01 -0.86362700D+00 -0.29818965D+00  0.99152792D-02
  0.45699431D-02 -0.12814598D-01  0.19694126D-04  0.15100207D-04  0.75360615D-05
  0.27225481D-03  0.20874772D-03  0.10417974D-03  0.62755449D-08  0.48116898D-08
  0.24013704D-08  0.20481517D-02  0.84585332D-04 -0.64938146D-03  0.26337341D-08
  0.50594794D-02  0.52013439D-02  0.51730367D-02  0.17961133D-04 -0.30757950D-07
 -0.29668069D-07  0.25713058D+00  0.47435571D+00  0.76575719D+00  0.99678833D+00
  0.85056129D+00  0.29367837D+00 -0.97653066D-02 -0.45008209D-02  0.12620772D-01
 -0.19940299D-04 -0.15288956D-04 -0.76302608D-05  0.26959705D-03  0.20670992D-03
  0.10316274D-03 -0.12996153D-08 -0.99646260D-09 -0.49730468D-09 -0.20191727D-02
 -0.84602657D-04 -0.64340687D-03 -0.16701607D-08 -0.49807797D-02 -0.51217113D-02
 -0.50942943D-02  0.16809942D-04  0.14395248D-07 -0.29326944D-07  0.20098071D-01
  0.37077016D-01  0.59853801D-01  0.77911864D-01  0.66482335D-01  0.22954753D-01
 -0.44257481D-03 -0.20398232D-03  0.57198773D-03  0.16214731D-04  0.12432428D-04
  0.62046527D-05  0.19574651D-03  0.15008601D-03  0.74903436D-04 -0.16674453D-07
 -0.12784913D-07 -0.63805676D-08  0.24302694D-02 -0.36216660D-04  0.47186887D-03
  0.18279127D-07 -0.80734100D-03 -0.76377815D-03 -0.67661814D-03 -0.59394343D-05
 -0.23060577D-07 -0.28914354D-07 -0.20005269D-01 -0.36905816D-01 -0.59577429D-01
 -0.77552111D-01 -0.66175357D-01 -0.22848760D-01  0.44008340D-03  0.20283404D-03
 -0.56876781D-03 -0.65541820D-05 -0.50253311D-05 -0.25079924D-05  0.19518871D-03
  0.14965832D-03  0.74689991D-04  0.27445133D-07  0.21043187D-07  0.10502025D-07
 -0.24261369D-02  0.24739096D-04  0.47233933D-03 -0.41385696D-07  0.80402189D-03
  0.76057483D-03  0.67385769D-03 -0.34826371D-05  0.20822561D-07 -0.11622027D-07
 -0.26894891D+00 -0.49615822D+00 -0.80095321D+00 -0.10426031D+01 -0.88965510D+00
 -0.30717653D+00  0.10215199D-01  0.47081760D-02 -0.13202217D-01 -0.18608797D-04
 -0.14268045D-04 -0.71207544D-05  0.27793522D-03  0.21310309D-03  0.10635338D-03
 -0.21800145D-07 -0.16714968D-07 -0.83419407D-08  0.21347788D-02 -0.80610155D-04
 -0.67410224D-03  0.74302317D-07  0.52155493D-02  0.53593228D-02  0.53287339D-02
 -0.18027624D-04  0.53660845D-08  0.34319309D-07  0.65636988D-04  0.11133276D-03
  0.12674841D-03  0.37811491D-04  0.97534981D-02  0.17993299D-01  0.29046764D-01
  0.37810257D-01  0.32263560D-01  0.11139832D-01 -0.18848818D-03 -0.86874031D-04
  0.24360385D-03 -0.25066231D-03 -0.19219196D-03 -0.95917257D-04  0.10967949D-03
  0.84095277D-04  0.41969437D-04  0.55360965D-08  0.42447277D-08  0.21184166D-08
  0.13445405D-02  0.69043956D-03  0.26189922D-03 -0.42116723D-07 -0.39266639D-03
 -0.39230080D-03 -0.34193546D-03  0.10593664D-03  0.19832036D-07 -0.35406991D-07
  0.27522507D+00  0.50773651D+00  0.81964416D+00  0.10669332D+01  0.91041599D+00
  0.31434476D+00 -0.10452614D-01 -0.48176003D-02  0.13509054D-01  0.18333725D-04
  0.14057137D-04  0.70154966D-05  0.28249641D-03  0.21660033D-03  0.10809874D-03
  0.20732747D-07  0.15896556D-07  0.79334953D-08 -0.21775745D-02  0.80629642D-04
 -0.68236558D-03 -0.65128915D-07 -0.53397432D-02 -0.54852507D-02 -0.54545296D-02
 -0.19067973D-04 -0.14477779D-08  0.44180421D-07  0.63927615D-04  0.10843333D-03
  0.12344752D-03  0.36595063D-04  0.40556925D-06  0.68792221D-06  0.78317512D-06
 -0.94511209D-05  0.77657205D-05  0.13172132D-04  0.14996007D-04  0.13304926D-04
 -0.78316754D-05 -0.13284004D-04 -0.15123369D-04 -0.13417607D-04 -0.46653138D-06
 -0.79132551D-06 -0.90089613D-06  0.91817873D-05 -0.63280700D-04 -0.10733604D-03
 -0.12219829D-03 -0.37858100D-04 -0.66651062D-04 -0.11305282D-03 -0.12870663D-03
 -0.35649630D-04 -0.95204966D-02 -0.17563457D-01 -0.28352866D-01 -0.36907007D-01
 -0.31492816D-01 -0.10873712D-01  0.18264056D-03  0.84178866D-04 -0.23604633D-03
  0.24527419D-03  0.18806069D-03  0.93855466D-04  0.10783086D-03  0.82677863D-04
  0.41262048D-04 -0.26569806D-08 -0.20372042D-08 -0.10167077D-08 -0.13313303D-02
 -0.68389364D-03  0.26378478D-03  0.31524406D-07  0.38440730D-03  0.38406031D-03
  0.33489859D-03  0.10451214D-03 -0.27698348D-07 -0.32409476D-07 -0.90819630D-04
 -0.16754448D-03 -0.27046875D-03 -0.35206994D-03 -0.30042192D-03 -0.10372847D-03
 -0.40136860D-05 -0.18499042D-05  0.51873245D-05 -0.21370043D-04 -0.16385194D-04
 -0.81773600D-05  0.45854083D-04  0.35158003D-04  0.17546307D-04  0.15446643D-07
  0.11843506D-07  0.59107397D-08 -0.21549811D-03 -0.11140347D-03  0.35257416D-05
  0.15136847D-07 -0.60547954D-04 -0.21643673D-04 -0.58623750D-05 -0.18493225D-05
  0.29916294D-07 -0.19272568D-07  0.19782597D-05  0.36495029D-05  0.58914293D-05
  0.76688904D-05  0.65438781D-05  0.22594438D-05 -0.80786981D-05 -0.37234646D-05
  0.10440983D-04  0.10881269D-05  0.83430666D-06  0.41637750D-06  0.15721680D-04
  0.12054387D-04  0.60159840D-05 -0.13730475D-08 -0.10527657D-08 -0.52540388D-09
 -0.55432182D-04 -0.37873255D-04 -0.21423936D-04  0.18716248D-08 -0.84107890D-05
  0.17380484D-04  0.38674990D-05  0.24965220D-04  0.40227604D-08 -0.44823608D-08
  0.80175003D-05  0.13599198D-04  0.15482206D-04  0.14509258D-04  0.92833614D-04
  0.17125989D-03  0.27646657D-03  0.35987732D-03  0.30708397D-03  0.10602872D-03
  0.46385687D-05  0.21379121D-05 -0.59949286D-05  0.21604039D-04  0.16564607D-04
  0.82668998D-05  0.46093726D-04  0.35341746D-04  0.17638008D-04 -0.17907452D-07
 -0.13730298D-07 -0.68523810D-08  0.21733647D-03  0.11102267D-03  0.46310028D-05
 -0.11180397D-07  0.61119960D-04  0.22291602D-04  0.52834672D-05 -0.13620296D-05
 -0.26245596D-07 -0.17695367D-07 -0.21220227D-05 -0.39147175D-05 -0.63195679D-05
 -0.82261996D-05 -0.70194310D-05 -0.24236409D-05  0.84137651D-05  0.38778967D-05
 -0.10874027D-04 -0.17688280D-05 -0.13562251D-05 -0.67685140D-06  0.15588908D-04
  0.11952586D-04  0.59651780D-05  0.30061154D-09  0.23048986D-09  0.11503059D-09
  0.54645459D-04  0.38085600D-04 -0.21021177D-04 -0.19121720D-08  0.85808087D-05
 -0.17525938D-04 -0.43422228D-05  0.25336954D-04 -0.50370598D-08 -0.23873543D-08
  0.46220335D-06  0.78398436D-06  0.89253848D-06 -0.95417363D-05 -0.79607462D-05
 -0.13502932D-04 -0.15372611D-04 -0.14272198D-04 -0.40418808D-06 -0.68557948D-06
 -0.78050800D-06  0.99063199D-05
MO    2     MO 0.0        OCC NO =    1.0000000  ORB. ENERGY =  -10.356612
 -0.53952482D-05 -0.99531793D-05 -0.16067518D-04 -0.20915134D-04 -0.17846922D-04
 -0.61621131D-05  0.14896010D-04  0.68655575D-05 -0.19251740D-04  0.28772318D-04
  0.22060789D-04  0.11009880D-04 -0.75234506D-05 -0.57685047D-05 -0.28788881D-05
 -0.32442027D-10 -0.24874488D-10 -0.12414113D-10 -0.54844868D-05 -0.74882942D-05
 -0.47828871D-06  0.23172015D-10  0.64280830D-05 -0.39685492D-05 -0.21908515D-04
  0.14107536D-04  0.19673149D-08  0.72863014D-09  0.79052989D-04  0.14583733D-03
  0.23542667D-03  0.30645557D-03  0.26149909D-03  0.90289353D-04  0.41525043D-04
  0.19138854D-04 -0.53667346D-04 -0.15179059D-04 -0.11638339D-04 -0.58083470D-05
 -0.15624088D-04 -0.11979560D-04 -0.59786400D-05  0.15152886D-08  0.11618272D-08
  0.57983320D-09  0.16180557D-03 -0.42840511D-04 -0.61335164D-04 -0.24347084D-08
  0.38752072D-04  0.24418618D-04 -0.38725856D-04  0.39248365D-04  0.63230008D-08
  0.28451903D-09  0.98537523D-02  0.18178249D-01  0.29345330D-01  0.38198901D-01
  0.32595191D-01  0.11254336D-01 -0.24235868D-03 -0.11170289D-03  0.31322657D-03
  0.28046634D-03  0.21504380D-03  0.10732193D-03 -0.49954470D-04 -0.38301919D-04
 -0.19115342D-04  0.18032036D-07  0.13825821D-07  0.69000537D-08  0.43127455D-03
 -0.31872187D-03  0.15448082D-04 -0.19338016D-07 -0.35931953D-03 -0.35391070D-03
 -0.31289272D-03  0.62112573D-04 -0.17250923D-08 -0.26281413D-08  0.94449905D-02
  0.17424163D-01  0.28128002D-01  0.36614301D-01  0.31243049D-01  0.10787474D-01
 -0.23381985D-03 -0.10776735D-03  0.30219091D-03  0.27056572D-03  0.20745263D-03
  0.10353340D-03  0.45733317D-04  0.35065406D-04  0.17500095D-04  0.15620271D-07
  0.11976633D-07  0.59771794D-08  0.37895891D-03 -0.29345785D-03 -0.24460313D-04
 -0.14097530D-07 -0.34269239D-03 -0.33792277D-03 -0.29885816D-03 -0.59368133D-04
  0.17842868D-08  0.52608920D-08  0.75254066D-04  0.13882906D-03  0.22411314D-03
  0.29172872D-03  0.24893265D-03  0.85950461D-04  0.41431408D-04  0.19095698D-04
 -0.53546331D-04 -0.14079956D-04 -0.10795617D-04 -0.53877695D-05  0.13879854D-04
  0.10642191D-04  0.53111994D-05 -0.32076543D-09 -0.24594259D-09 -0.12274259D-09
  0.15396770D-03 -0.40230472D-04  0.61240298D-04 -0.86726354D-09  0.36301742D-04
  0.23663970D-04 -0.38990900D-04 -0.39597588D-04  0.50316562D-08  0.10714275D-08
 -0.53371161D-05 -0.98459371D-05 -0.15894395D-04 -0.20689780D-04 -0.17654627D-04
 -0.60957184D-05  0.14697177D-04  0.67739154D-05 -0.18994766D-04  0.28760229D-04
  0.22051519D-04  0.11005254D-04  0.69856939D-05  0.53561870D-05  0.26731127D-05
  0.30542937D-09  0.23418387D-09  0.11687416D-09 -0.68081661D-05 -0.66344429D-05
  0.48070709D-06 -0.16167637D-09  0.61714197D-05 -0.32935634D-05 -0.21901350D-04
 -0.12892726D-04  0.21569876D-08 -0.19708641D-09  0.26508129D+00  0.48902321D+00
  0.78943510D+00  0.10276099D+01  0.87686142D+00  0.30275917D+00 -0.99641252D-02
 -0.45924562D-02  0.12877727D-01  0.21356528D-05  0.16374831D-05  0.81721884D-06
 -0.21834657D-03 -0.16741430D-03 -0.83551471D-04 -0.83510515D-08 -0.64030566D-08
 -0.31955740D-08 -0.15869018D-02 -0.46079315D-05  0.26648831D-03  0.92227009D-08
 -0.51816920D-02 -0.52761037D-02 -0.53622400D-02  0.14014503D-04  0.99817976D-08
  0.10138440D-07  0.25356799D+00  0.46778343D+00  0.75514751D+00  0.98297768D+00
  0.83877663D+00  0.28960941D+00 -0.95264203D-02 -0.43907184D-02  0.12312033D-01
  0.11974109D-05  0.91809874D-06  0.45819562D-06  0.20961926D-03  0.16072276D-03
  0.80211920D-04 -0.15828261D-08 -0.12136106D-08 -0.60567677D-09 -0.14806080D-02
 -0.71579693D-05 -0.23818759D-03  0.34089482D-08 -0.49539785D-02 -0.50450950D-02
 -0.51335404D-02 -0.15074267D-04  0.12479464D-07 -0.13010286D-07  0.21191689D-01
  0.39094529D-01  0.63110692D-01  0.82151369D-01  0.70099912D-01  0.24203815D-01
 -0.56923949D-03 -0.26236196D-03  0.73569032D-03  0.20407569D-04  0.15647230D-04
  0.78090642D-05  0.12544481D-03  0.96183121D-04  0.48002118D-04  0.10665981D-07
  0.81779974D-08  0.40813939D-08  0.93297938D-03 -0.37289341D-04 -0.10552232D-03
  0.63970033D-09 -0.75706251D-03 -0.73089547D-03 -0.63032145D-03 -0.65897257D-05
 -0.11143465D-09 -0.20180121D-07  0.21307082D-01  0.39307405D-01  0.63454339D-01
  0.82598696D-01  0.70481617D-01  0.24335609D-01 -0.57178577D-03 -0.26353554D-03
  0.73898116D-03  0.29165850D-05  0.22362524D-05  0.11160467D-05 -0.12656863D-03
 -0.97044801D-04 -0.48432157D-04  0.16366431D-07  0.12548741D-07  0.62627012D-08
  0.94689858D-03  0.95978054D-05  0.10280823D-03 -0.16719564D-08 -0.76169747D-03
 -0.73528163D-03 -0.63420250D-03 -0.68250832D-06 -0.98329650D-08  0.12942555D-07
  0.26740257D+00  0.49330552D+00  0.79634807D+00  0.10366086D+01  0.88453997D+00
  0.30541039D+00 -0.10050675D-01 -0.46323467D-02  0.12989584D-01 -0.16983783D-05
 -0.13022087D-05 -0.64989343D-06 -0.21991171D-03 -0.16861435D-03 -0.84150380D-04
  0.14215014D-07  0.10899171D-07  0.54394502D-08 -0.15791154D-02  0.76324272D-05
  0.25913746D-03 -0.21358875D-07 -0.52277458D-02 -0.53229573D-02 -0.54099868D-02
 -0.12414999D-04 -0.77672195D-08 -0.38688993D-07 -0.41942309D-04 -0.71142095D-04