 Generated by Multiwfn
GAUSSIAN             60 MOL ORBITALS    552 PRIMITIVES       30 NUCLEI
  C    1    (CENTRE  1)   9.20257050  1.34756945  0.00022410  CHARGE =  6.0
  C    2    (CENTRE  2)   6.98816372  2.65291325  0.00013277  CHARGE =  6.0
  C    3    (CENTRE  3)   4.61238757  1.36687958  0.00001064  CHARGE =  6.0
  C    4    (CENTRE  4)   4.61238780 -1.36687410 -0.00002392  CHARGE =  6.0
  C    5    (CENTRE  5)   6.98816725 -2.65290928  0.00007115  CHARGE =  6.0
  C    6    (CENTRE  6)   9.20257182 -1.34756259  0.00018372  CHARGE =  6.0
  C    7    (CENTRE  7)   2.32613219  2.64781725 -0.00010050  CHARGE =  6.0
  C    8    (CENTRE  8)   2.32613620 -2.64781526 -0.00011614  CHARGE =  6.0
  C    9    (CENTRE  9)  -0.00001812 -1.36719057 -0.00021237  CHARGE =  6.0
  C   10    (CENTRE 10)  -0.00002045  1.36718912 -0.00024279  CHARGE =  6.0
  C   11    (CENTRE 11)  -2.32613342  2.64778244 -0.00033546  CHARGE =  6.0
  H   12    (CENTRE 12)  -2.32696913  4.69539413 -0.00073367  CHARGE =  1.0
  C   13    (CENTRE 13)  -4.61243018 -1.36688374 -0.00009776  CHARGE =  6.0
  C   14    (CENTRE 14)  -2.32612673 -2.64780863 -0.00029654  CHARGE =  6.0
  H   15    (CENTRE 15)   2.32683540  4.69541675 -0.00001897  CHARGE =  1.0
  H   16    (CENTRE 16)  10.98539214  2.34807726  0.00032097  CHARGE =  1.0
  H   17    (CENTRE 17)   6.98762968  4.69902231  0.00017361  CHARGE =  1.0
  H   18    (CENTRE 18)   6.98763299 -4.69901787  0.00005097  CHARGE =  1.0
  H   19    (CENTRE 19)  10.98539513 -2.34806895  0.00024423  CHARGE =  1.0
  H   20    (CENTRE 20)   2.32684314 -4.69541588 -0.00003316  CHARGE =  1.0
  H   21    (CENTRE 21)  -2.32696428 -4.69541042 -0.00070141  CHARGE =  1.0
  C   22    (CENTRE 22)  -4.61245029  1.36689428 -0.00012941  CHARGE =  6.0
  C   23    (CENTRE 23)  -6.98810735  2.65287929  0.00012340  CHARGE =  6.0
  C   24    (CENTRE 24)  -9.20257617  1.34751760  0.00024642  CHARGE =  6.0
  H   25    (CENTRE 25)  -6.98761419  4.69899153  0.00030963  CHARGE =  1.0
  C   26    (CENTRE 26)  -6.98808605 -2.65287449  0.00016065  CHARGE =  6.0
  C   27    (CENTRE 27)  -9.20255642 -1.34751826  0.00025662  CHARGE =  6.0
  H   28    (CENTRE 28) -10.98534205  2.34812339  0.00040888  CHARGE =  1.0
  H   29    (CENTRE 29)  -6.98760440 -4.69898747  0.00047846  CHARGE =  1.0
  H   30    (CENTRE 30) -10.98530563 -2.34815684  0.00037290  CHARGE =  1.0
CENTRE ASSIGNMENTS    1  1  1  1  1  1  1  1  1  1  1  1  1  1  1  1  1  1  1  1
CENTRE ASSIGNMENTS    1  1  1  1  1  1  1  1  2  2  2  2  2  2  2  2  2  2  2  2
CENTRE ASSIGNMENTS    2  2  2  2  2  2  2  2  2  2  2  2  2  2  2  2  3  3  3  3
CENTRE ASSIGNMENTS    3  3  3  3  3  3  3  3  3  3  3  3  3  3  3  3  3  3  3  3
CENTRE ASSIGNMENTS    3  3  3  3  4  4  4  4  4  4  4  4  4  4  4  4  4  4  4  4
CENTRE ASSIGNMENTS    4  4  4  4  4  4  4  4  4  4  4  4  5  5  5  5  5  5  5  5
CENTRE ASSIGNMENTS    5  5  5  5  5  5  5  5  5  5  5  5  5  5  5  5  5  5  5  5
CENTRE ASSIGNMENTS    6  6  6  6  6  6  6  6  6  6  6  6  6  6  6  6  6  6  6  6
CENTRE ASSIGNMENTS    6  6  6  6  6  6  6  6  7  7  7  7  7  7  7  7  7  7  7  7
CENTRE ASSIGNMENTS    7  7  7  7  7  7  7  7  7  7  7  7  7  7  7  7  8  8  8  8
CENTRE ASSIGNMENTS    8  8  8  8  8  8  8  8  8  8  8  8  8  8  8  8  8  8  8  8
CENTRE ASSIGNMENTS    8  8  8  8  9  9  9  9  9  9  9  9  9  9  9  9  9  9  9  9
CENTRE ASSIGNMENTS    9  9  9  9  9  9  9  9  9  9  9  9 10 10 10 10 10 10 10 10
CENTRE ASSIGNMENTS   10 10 10 10 10 10 10 10 10 10 10 10 10 10 10 10 10 10 10 10
CENTRE ASSIGNMENTS   11 11 11 11 11 11 11 11 11 11 11 11 11 11 11 11 11 11 11 11
CENTRE ASSIGNMENTS   11 11 11 11 11 11 11 11 12 12 12 12 13 13 13 13 13 13 13 13
CENTRE ASSIGNMENTS   13 13 13 13 13 13 13 13 13 13 13 13 13 13 13 13 13 13 13 13
CENTRE ASSIGNMENTS   14 14 14 14 14 14 14 14 14 14 14 14 14 14 14 14 14 14 14 14
CENTRE ASSIGNMENTS   14 14 14 14 14 14 14 14 15 15 15 15 16 16 16 16 17 17 17 17
CENTRE ASSIGNMENTS   18 18 18 18 19 19 19 19 20 20 20 20 21 21 21 21 22 22 22 22
CENTRE ASSIGNMENTS   22 22 22 22 22 22 22 22 22 22 22 22 22 22 22 22 22 22 22 22
CENTRE ASSIGNMENTS   22 22 22 22 23 23 23 23 23 23 23 23 23 23 23 23 23 23 23 23
CENTRE ASSIGNMENTS   23 23 23 23 23 23 23 23 23 23 23 23 24 24 24 24 24 24 24 24
CENTRE ASSIGNMENTS   24 24 24 24 24 24 24 24 24 24 24 24 24 24 24 24 24 24 24 24
CENTRE ASSIGNMENTS   25 25 25 25 26 26 26 26 26 26 26 26 26 26 26 26 26 26 26 26
CENTRE ASSIGNMENTS   26 26 26 26 26 26 26 26 26 26 26 26 27 27 27 27 27 27 27 27
CENTRE ASSIGNMENTS   27 27 27 27 27 27 27 27 27 27 27 27 27 27 27 27 27 27 27 27
CENTRE ASSIGNMENTS   28 28 28 28 29 29 29 29 30 30 30 30
TYPE ASSIGNMENTS      1  1  1  1  1  1  1  1  1  2  2  2  3  3  3  4  4  4  1  2
TYPE ASSIGNMENTS      3  4  5  6  7  8  9 10  1  1  1  1  1  1  1  1  1  2  2  2
TYPE ASSIGNMENTS      3  3  3  4  4  4  1  2  3  4  5  6  7  8  9 10  1  1  1  1
TYPE ASSIGNMENTS      1  1  1  1  1  2  2  2  3  3  3  4  4  4  1  2  3  4  5  6
TYPE ASSIGNMENTS      7  8  9 10  1  1  1  1  1  1  1  1  1  2  2  2  3  3  3  4
TYPE ASSIGNMENTS      4  4  1  2  3  4  5  6  7  8  9 10  1  1  1  1  1  1  1  1
TYPE ASSIGNMENTS      1  2  2  2  3  3  3  4  4  4  1  2  3  4  5  6  7  8  9 10
TYPE ASSIGNMENTS      1  1  1  1  1  1  1  1  1  2  2  2  3  3  3  4  4  4  1  2
TYPE ASSIGNMENTS      3  4  5  6  7  8  9 10  1  1  1  1  1  1  1  1  1  2  2  2
TYPE ASSIGNMENTS      3  3  3  4  4  4  1  2  3  4  5  6  7  8  9 10  1  1  1  1
TYPE ASSIGNMENTS      1  1  1  1  1  2  2  2  3  3  3  4  4  4  1  2  3  4  5  6
TYPE ASSIGNMENTS      7  8  9 10  1  1  1  1  1  1  1  1  1  2  2  2  3  3  3  4
TYPE ASSIGNMENTS      4  4  1  2  3  4  5  6  7  8  9 10  1  1  1  1  1  1  1  1
TYPE ASSIGNMENTS      1  2  2  2  3  3  3  4  4  4  1  2  3  4  5  6  7  8  9 10
TYPE ASSIGNMENTS      1  1  1  1  1  1  1  1  1  2  2  2  3  3  3  4  4  4  1  2
TYPE ASSIGNMENTS      3  4  5  6  7  8  9 10  1  1  1  1  1  1  1  1  1  1  1  1
TYPE ASSIGNMENTS      1  2  2  2  3  3  3  4  4  4  1  2  3  4  5  6  7  8  9 10
TYPE ASSIGNMENTS      1  1  1  1  1  1  1  1  1  2  2  2  3  3  3  4  4  4  1  2
TYPE ASSIGNMENTS      3  4  5  6  7  8  9 10  1  1  1  1  1  1  1  1  1  1  1  1
TYPE ASSIGNMENTS      1  1  1  1  1  1  1  1  1  1  1  1  1  1  1  1  1  1  1  1
TYPE ASSIGNMENTS      1  1  1  1  1  2  2  2  3  3  3  4  4  4  1  2  3  4  5  6
TYPE ASSIGNMENTS      7  8  9 10  1  1  1  1  1  1  1  1  1  2  2  2  3  3  3  4
TYPE ASSIGNMENTS      4  4  1  2  3  4  5  6  7  8  9 10  1  1  1  1  1  1  1  1
TYPE ASSIGNMENTS      1  2  2  2  3  3  3  4  4  4  1  2  3  4  5  6  7  8  9 10
TYPE ASSIGNMENTS      1  1  1  1  1  1  1  1  1  1  1  1  1  2  2  2  3  3  3  4
TYPE ASSIGNMENTS      4  4  1  2  3  4  5  6  7  8  9 10  1  1  1  1  1  1  1  1
TYPE ASSIGNMENTS      1  2  2  2  3  3  3  4  4  4  1  2  3  4  5  6  7  8  9 10
TYPE ASSIGNMENTS      1  1  1  1  1  1  1  1  1  1  1  1
EXPONENTS  0.3047525D+04 0.4573695D+03 0.1039487D+03 0.2921016D+02 0.9286663D+01
EXPONENTS  0.3163927D+01 0.7868272D+01 0.1881289D+01 0.5442493D+00 0.7868272D+01
EXPONENTS  0.1881289D+01 0.5442493D+00 0.7868272D+01 0.1881289D+01 0.5442493D+00
EXPONENTS  0.7868272D+01 0.1881289D+01 0.5442493D+00 0.1687145D+00 0.1687145D+00
EXPONENTS  0.1687145D+00 0.1687145D+00 0.8000000D+00 0.8000000D+00 0.8000000D+00
EXPONENTS  0.8000000D+00 0.8000000D+00 0.8000000D+00 0.3047525D+04 0.4573695D+03
EXPONENTS  0.1039487D+03 0.2921016D+02 0.9286663D+01 0.3163927D+01 0.7868272D+01
EXPONENTS  0.1881289D+01 0.5442493D+00 0.7868272D+01 0.1881289D+01 0.5442493D+00
EXPONENTS  0.7868272D+01 0.1881289D+01 0.5442493D+00 0.7868272D+01 0.1881289D+01
EXPONENTS  0.5442493D+00 0.1687145D+00 0.1687145D+00 0.1687145D+00 0.1687145D+00
EXPONENTS  0.8000000D+00 0.8000000D+00 0.8000000D+00 0.8000000D+00 0.8000000D+00
EXPONENTS  0.8000000D+00 0.3047525D+04 0.4573695D+03 0.1039487D+03 0.2921016D+02
EXPONENTS  0.9286663D+01 0.3163927D+01 0.7868272D+01 0.1881289D+01 0.5442493D+00
EXPONENTS  0.7868272D+01 0.1881289D+01 0.5442493D+00 0.7868272D+01 0.1881289D+01
EXPONENTS  0.5442493D+00 0.7868272D+01 0.1881289D+01 0.5442493D+00 0.1687145D+00
EXPONENTS  0.1687145D+00 0.1687145D+00 0.1687145D+00 0.8000000D+00 0.8000000D+00
EXPONENTS  0.8000000D+00 0.8000000D+00 0.8000000D+00 0.8000000D+00 0.3047525D+04
EXPONENTS  0.4573695D+03 0.1039487D+03 0.2921016D+02 0.9286663D+01 0.3163927D+01
EXPONENTS  0.7868272D+01 0.1881289D+01 0.5442493D+00 0.7868272D+01 0.1881289D+01
EXPONENTS  0.5442493D+00 0.7868272D+01 0.1881289D+01 0.5442493D+00 0.7868272D+01
EXPONENTS  0.1881289D+01 0.5442493D+00 0.1687145D+00 0.1687145D+00 0.1687145D+00
EXPONENTS  0.1687145D+00 0.8000000D+00 0.8000000D+00 0.8000000D+00 0.8000000D+00
EXPONENTS  0.8000000D+00 0.8000000D+00 0.3047525D+04 0.4573695D+03 0.1039487D+03
EXPONENTS  0.2921016D+02 0.9286663D+01 0.3163927D+01 0.7868272D+01 0.1881289D+01
EXPONENTS  0.5442493D+00 0.7868272D+01 0.1881289D+01 0.5442493D+00 0.7868272D+01
EXPONENTS  0.1881289D+01 0.5442493D+00 0.7868272D+01 0.1881289D+01 0.5442493D+00
EXPONENTS  0.1687145D+00 0.1687145D+00 0.1687145D+00 0.1687145D+00 0.8000000D+00
EXPONENTS  0.8000000D+00 0.8000000D+00 0.8000000D+00 0.8000000D+00 0.8000000D+00
EXPONENTS  0.3047525D+04 0.4573695D+03 0.1039487D+03 0.2921016D+02 0.9286663D+01
EXPONENTS  0.3163927D+01 0.7868272D+01 0.1881289D+01 0.5442493D+00 0.7868272D+01
EXPONENTS  0.1881289D+01 0.5442493D+00 0.7868272D+01 0.1881289D+01 0.5442493D+00
EXPONENTS  0.7868272D+01 0.1881289D+01 0.5442493D+00 0.1687145D+00 0.1687145D+00
EXPONENTS  0.1687145D+00 0.1687145D+00 0.8000000D+00 0.8000000D+00 0.8000000D+00
EXPONENTS  0.8000000D+00 0.8000000D+00 0.8000000D+00 0.3047525D+04 0.4573695D+03
EXPONENTS  0.1039487D+03 0.2921016D+02 0.9286663D+01 0.3163927D+01 0.7868272D+01
EXPONENTS  0.1881289D+01 0.5442493D+00 0.7868272D+01 0.1881289D+01 0.5442493D+00
EXPONENTS  0.7868272D+01 0.1881289D+01 0.5442493D+00 0.7868272D+01 0.1881289D+01
EXPONENTS  0.5442493D+00 0.1687145D+00 0.1687145D+00 0.1687145D+00 0.1687145D+00
EXPONENTS  0.8000000D+00 0.8000000D+00 0.8000000D+00 0.8000000D+00 0.8000000D+00
EXPONENTS  0.8000000D+00 0.3047525D+04 0.4573695D+03 0.1039487D+03 0.2921016D+02
EXPONENTS  0.9286663D+01 0.3163927D+01 0.7868272D+01 0.1881289D+01 0.5442493D+00
EXPONENTS  0.7868272D+01 0.1881289D+01 0.5442493D+00 0.7868272D+01 0.1881289D+01
EXPONENTS  0.5442493D+00 0.7868272D+01 0.1881289D+01 0.5442493D+00 0.1687145D+00
EXPONENTS  0.1687145D+00 0.1687145D+00 0.1687145D+00 0.8000000D+00 0.8000000D+00
EXPONENTS  0.8000000D+00 0.8000000D+00 0.8000000D+00 0.8000000D+00 0.3047525D+04
EXPONENTS  0.4573695D+03 0.1039487D+03 0.2921016D+02 0.9286663D+01 0.3163927D+01
EXPONENTS  0.7868272D+01 0.1881289D+01 0.5442493D+00 0.7868272D+01 0.1881289D+01
EXPONENTS  0.5442493D+00 0.7868272D+01 0.1881289D+01 0.5442493D+00 0.7868272D+01
EXPONENTS  0.1881289D+01 0.5442493D+00 0.1687145D+00 0.1687145D+00 0.1687145D+00
EXPONENTS  0.1687145D+00 0.8000000D+00 0.8000000D+00 0.8000000D+00 0.8000000D+00
EXPONENTS  0.8000000D+00 0.8000000D+00 0.3047525D+04 0.4573695D+03 0.1039487D+03
EXPONENTS  0.2921016D+02 0.9286663D+01 0.3163927D+01 0.7868272D+01 0.1881289D+01
EXPONENTS  0.5442493D+00 0.7868272D+01 0.1881289D+01 0.5442493D+00 0.7868272D+01
EXPONENTS  0.1881289D+01 0.5442493D+00 0.7868272D+01 0.1881289D+01 0.5442493D+00
EXPONENTS  0.1687145D+00 0.1687145D+00 0.1687145D+00 0.1687145D+00 0.8000000D+00
EXPONENTS  0.8000000D+00 0.8000000D+00 0.8000000D+00 0.8000000D+00 0.8000000D+00
EXPONENTS  0.3047525D+04 0.4573695D+03 0.1039487D+03 0.2921016D+02 0.9286663D+01
EXPONENTS  0.3163927D+01 0.7868272D+01 0.1881289D+01 0.5442493D+00 0.7868272D+01
EXPONENTS  0.1881289D+01 0.5442493D+00 0.7868272D+01 0.1881289D+01 0.5442493D+00
EXPONENTS  0.7868272D+01 0.1881289D+01 0.5442493D+00 0.1687145D+00 0.1687145D+00
EXPONENTS  0.1687145D+00 0.1687145D+00 0.8000000D+00 0.8000000D+00 0.8000000D+00
EXPONENTS  0.8000000D+00 0.8000000D+00 0.8000000D+00 0.1873114D+02 0.2825394D+01
EXPONENTS  0.6401217D+00 0.1612778D+00 0.3047525D+04 0.4573695D+03 0.1039487D+03
EXPONENTS  0.2921016D+02 0.9286663D+01 0.3163927D+01 0.7868272D+01 0.1881289D+01
EXPONENTS  0.5442493D+00 0.7868272D+01 0.1881289D+01 0.5442493D+00 0.7868272D+01
EXPONENTS  0.1881289D+01 0.5442493D+00 0.7868272D+01 0.1881289D+01 0.5442493D+00
EXPONENTS  0.1687145D+00 0.1687145D+00 0.1687145D+00 0.1687145D+00 0.8000000D+00
EXPONENTS  0.8000000D+00 0.8000000D+00 0.8000000D+00 0.8000000D+00 0.8000000D+00
EXPONENTS  0.3047525D+04 0.4573695D+03 0.1039487D+03 0.2921016D+02 0.9286663D+01
EXPONENTS  0.3163927D+01 0.7868272D+01 0.1881289D+01 0.5442493D+00 0.7868272D+01
EXPONENTS  0.1881289D+01 0.5442493D+00 0.7868272D+01 0.1881289D+01 0.5442493D+00
EXPONENTS  0.7868272D+01 0.1881289D+01 0.5442493D+00 0.1687145D+00 0.1687145D+00
EXPONENTS  0.1687145D+00 0.1687145D+00 0.8000000D+00 0.8000000D+00 0.8000000D+00
EXPONENTS  0.8000000D+00 0.8000000D+00 0.8000000D+00 0.1873114D+02 0.2825394D+01
EXPONENTS  0.6401217D+00 0.1612778D+00 0.1873114D+02 0.2825394D+01 0.6401217D+00
EXPONENTS  0.1612778D+00 0.1873114D+02 0.2825394D+01 0.6401217D+00 0.1612778D+00
EXPONENTS  0.1873114D+02 0.2825394D+01 0.6401217D+00 0.1612778D+00 0.1873114D+02
EXPONENTS  0.2825394D+01 0.6401217D+00 0.1612778D+00 0.1873114D+02 0.2825394D+01
EXPONENTS  0.6401217D+00 0.1612778D+00 0.1873114D+02 0.2825394D+01 0.6401217D+00
EXPONENTS  0.1612778D+00 0.3047525D+04 0.4573695D+03 0.1039487D+03 0.2921016D+02
EXPONENTS  0.9286663D+01 0.3163927D+01 0.7868272D+01 0.1881289D+01 0.5442493D+00
EXPONENTS  0.7868272D+01 0.1881289D+01 0.5442493D+00 0.7868272D+01 0.1881289D+01
EXPONENTS  0.5442493D+00 0.7868272D+01 0.1881289D+01 0.5442493D+00 0.1687145D+00
EXPONENTS  0.1687145D+00 0.1687145D+00 0.1687145D+00 0.8000000D+00 0.8000000D+00
EXPONENTS  0.8000000D+00 0.8000000D+00 0.8000000D+00 0.8000000D+00 0.3047525D+04
EXPONENTS  0.4573695D+03 0.1039487D+03 0.2921016D+02 0.9286663D+01 0.3163927D+01
EXPONENTS  0.7868272D+01 0.1881289D+01 0.5442493D+00 0.7868272D+01 0.1881289D+01
EXPONENTS  0.5442493D+00 0.7868272D+01 0.1881289D+01 0.5442493D+00 0.7868272D+01
EXPONENTS  0.1881289D+01 0.5442493D+00 0.1687145D+00 0.1687145D+00 0.1687145D+00
EXPONENTS  0.1687145D+00 0.8000000D+00 0.8000000D+00 0.8000000D+00 0.8000000D+00
EXPONENTS  0.8000000D+00 0.8000000D+00 0.3047525D+04 0.4573695D+03 0.1039487D+03
EXPONENTS  0.2921016D+02 0.9286663D+01 0.3163927D+01 0.7868272D+01 0.1881289D+01
EXPONENTS  0.5442493D+00 0.7868272D+01 0.1881289D+01 0.5442493D+00 0.7868272D+01
EXPONENTS  0.1881289D+01 0.5442493D+00 0.7868272D+01 0.1881289D+01 0.5442493D+00
EXPONENTS  0.1687145D+00 0.1687145D+00 0.1687145D+00 0.1687145D+00 0.8000000D+00
EXPONENTS  0.8000000D+00 0.8000000D+00 0.8000000D+00 0.8000000D+00 0.8000000D+00
EXPONENTS  0.1873114D+02 0.2825394D+01 0.6401217D+00 0.1612778D+00 0.3047525D+04
EXPONENTS  0.4573695D+03 0.1039487D+03 0.2921016D+02 0.9286663D+01 0.3163927D+01
EXPONENTS  0.7868272D+01 0.1881289D+01 0.5442493D+00 0.7868272D+01 0.1881289D+01
EXPONENTS  0.5442493D+00 0.7868272D+01 0.1881289D+01 0.5442493D+00 0.7868272D+01
EXPONENTS  0.1881289D+01 0.5442493D+00 0.1687145D+00 0.1687145D+00 0.1687145D+00
EXPONENTS  0.1687145D+00 0.8000000D+00 0.8000000D+00 0.8000000D+00 0.8000000D+00
EXPONENTS  0.8000000D+00 0.8000000D+00 0.3047525D+04 0.4573695D+03 0.1039487D+03
EXPONENTS  0.2921016D+02 0.9286663D+01 0.3163927D+01 0.7868272D+01 0.1881289D+01
EXPONENTS  0.5442493D+00 0.7868272D+01 0.1881289D+01 0.5442493D+00 0.7868272D+01
EXPONENTS  0.1881289D+01 0.5442493D+00 0.7868272D+01 0.1881289D+01 0.5442493D+00
EXPONENTS  0.1687145D+00 0.1687145D+00 0.1687145D+00 0.1687145D+00 0.8000000D+00
EXPONENTS  0.8000000D+00 0.8000000D+00 0.8000000D+00 0.8000000D+00 0.8000000D+00
EXPONENTS  0.1873114D+02 0.2825394D+01 0.6401217D+00 0.1612778D+00 0.1873114D+02
EXPONENTS  0.2825394D+01 0.6401217D+00 0.1612778D+00 0.1873114D+02 0.2825394D+01
EXPONENTS  0.6401217D+00 0.1612778D+00
MO    1     MO 0.0        OCC NO =    2.0000000  ORB. ENERGY =  -10.196697
  0.49469375D-05  0.91261338D-05  0.14732410D-04  0.19177220D-04  0.16363957D-04
  0.56500810D-05  0.42708455D-05  0.19684288D-05 -0.55196798D-05 -0.86333061D-05
 -0.66194715D-05 -0.33035802D-05 -0.11834979D-05 -0.90743113D-06 -0.45287173D-06
 -0.67321376D-09 -0.51617761D-09 -0.25760881D-09  0.54747006D-04 -0.10238550D-04
  0.17016361D-04 -0.28223536D-09  0.43040627D-05  0.81088237D-06 -0.41681374D-05
 -0.42782692D-05  0.73776336D-09 -0.42793488D-09  0.13431915D-03  0.24779260D-03
  0.40001409D-03  0.52069949D-03  0.44431382D-03  0.15341089D-03  0.60414151D-05
  0.27844827D-05 -0.78079801D-05  0.17492850D-04  0.13412408D-04  0.66937317D-05
 -0.58835605D-05 -0.45111410D-05 -0.22513755D-05  0.13299629D-08  0.10197312D-08
  0.50891732D-09  0.21773847D-04 -0.62318483D-04  0.14377890D-04 -0.24293992D-08
  0.62866863D-05 -0.12157504D-04 -0.11699640D-04  0.47880584D-05  0.99582520D-09
 -0.32113829D-09  0.51349482D-02  0.94729767D-02  0.15292322D-01  0.19906059D-01
  0.16985876D-01  0.58648148D-02 -0.17308241D-03 -0.79773523D-04  0.22369328D-03
  0.34141673D-04  0.26177669D-04  0.13064492D-04  0.32854372D-04  0.25190649D-04
  0.12571899D-04  0.37870716D-08  0.29036863D-08  0.14491430D-08 -0.10994250D-03
  0.79933931D-05 -0.29229409D-04 -0.20774106D-08 -0.63810240D-04 -0.86130748D-04
 -0.11916705D-03 -0.27167079D-04  0.82940694D-08 -0.22883012D-08  0.51335181D-02
  0.94703384D-02  0.15288063D-01  0.19900515D-01  0.16981146D-01  0.58631815D-02
 -0.17302313D-03 -0.79746203D-04  0.22361668D-03  0.34150685D-04  0.26184579D-04
  0.13067940D-04 -0.32856056D-04 -0.25191940D-04 -0.12572544D-04  0.88050690D-09
  0.67511685D-09  0.33693062D-09 -0.10984879D-03  0.79126566D-05  0.29232508D-04
  0.21763316D-08 -0.63791341D-04 -0.86110326D-04 -0.11914572D-03  0.27165963D-04
  0.32938650D-08  0.26967666D-09  0.13428178D-03  0.24772367D-03  0.39990281D-03
  0.52055464D-03  0.44419021D-03  0.15336821D-03  0.60446224D-05  0.27859610D-05
 -0.78121253D-05  0.17483447D-04  0.13405199D-04  0.66901336D-05  0.58867405D-05
  0.45135792D-05  0.22525924D-05 -0.37252171D-09 -0.28562602D-09 -0.14254740D-09
  0.21822728D-04 -0.62315595D-04 -0.14355870D-04 -0.27770481D-08  0.62900341D-05
 -0.12150875D-04 -0.11699234D-04 -0.47897552D-05  0.18031077D-08 -0.65010992D-09
  0.49481312D-05  0.91283359D-05  0.14735965D-04  0.19181847D-04  0.16367905D-04
  0.56514443D-05  0.42681606D-05  0.19671913D-05 -0.55162099D-05 -0.86308606D-05
 -0.66175964D-05 -0.33026444D-05  0.11850295D-05  0.90860543D-06  0.45345779D-06
 -0.12445023D-09 -0.95420544D-10 -0.47621539D-10  0.54717731D-04 -0.10225446D-04
 -0.17018147D-04 -0.79850466D-09  0.43027371D-05  0.81002859D-06 -0.41663658D-05
  0.42751874D-05  0.10678456D-08  0.28918211D-09  0.11645248D-01  0.21483209D-01
  0.34680560D-01  0.45143785D-01  0.38521273D-01  0.13300470D-01 -0.28967690D-03
 -0.13351182D-03  0.37438107D-03  0.29225996D-03  0.22408640D-03  0.11183482D-03
  0.21143139D-03  0.16211218D-03  0.80905339D-04  0.13744460D-07  0.10538380D-07
  0.52593904D-08  0.61204373D-03 -0.19055525D-03 -0.10926976D-03 -0.62223161D-08
 -0.49670547D-03 -0.42660664D-03 -0.36282745D-03 -0.13989358D-03 -0.21275228D-07
 -0.16151257D-07  0.11642769D-01  0.21478635D-01  0.34673176D-01  0.45134173D-01
  0.38513071D-01  0.13297638D-01 -0.28961128D-03 -0.13348157D-03  0.37429627D-03
  0.29221241D-03  0.22404995D-03  0.11181663D-03 -0.21140187D-03 -0.16208955D-03
 -0.80894045D-04  0.15378793D-07  0.11791483D-07  0.58847765D-08  0.61185985D-03
 -0.19055529D-03  0.10919119D-03 -0.11825284D-07 -0.49659799D-03 -0.42651474D-03
 -0.36275077D-03  0.13986244D-03 -0.56245631D-08 -0.22665877D-08  0.37599890D+00
  0.69364455D+00  0.11197574D+01  0.14575914D+01  0.12437654D+01  0.42944229D+00
 -0.13969295D-01 -0.64384353D-02  0.18054045D-01 -0.25841338D-07 -0.19813499D-07
 -0.98883245D-08 -0.23245854D-03 -0.17823446D-03 -0.88951489D-04 -0.45149269D-08
 -0.34617596D-08 -0.17276607D-08 -0.17213878D-02  0.94895385D-08  0.21721447D-03
  0.86974291D-08 -0.73349962D-02 -0.76452664D-02 -0.75768271D-02  0.24887359D-07
  0.11452104D-07  0.99620738D-08  0.37605462D+00  0.69374734D+00  0.11199233D+01
  0.14578074D+01  0.12439497D+01  0.42950593D+00 -0.13971417D-01 -0.64394134D-02
  0.18056787D-01 -0.33202282D-07 -0.25457404D-07 -0.12705029D-07  0.23240479D-03
  0.17819325D-03  0.88930921D-04  0.22299171D-07  0.17097590D-07  0.85328957D-08
 -0.17220013D-02  0.79934268D-08 -0.21708921D-03 -0.13403812D-07 -0.73360183D-02
 -0.76462958D-02 -0.75779058D-02 -0.27711408D-07  0.20990771D-07  0.11405714D-07
  0.11643138D-01  0.21479315D-01  0.34674275D-01  0.45135603D-01  0.38514292D-01
  0.13298060D-01 -0.28960377D-03 -0.13347811D-03  0.37428657D-03 -0.29232799D-03
 -0.22413856D-03 -0.11186085D-03  0.21140536D-03  0.16209222D-03  0.80895379D-04
 -0.67893773D-08 -0.52056639D-08 -0.25979911D-08  0.61198185D-03  0.19060396D-03
 -0.10925229D-03  0.94271694D-08 -0.49660862D-03 -0.42653447D-03 -0.36276580D-03
  0.13987272D-03 -0.29099409D-08 -0.14768646D-07 -0.11265652D-04 -0.19108678D-04
 -0.21754554D-04 -0.35205721D-05  0.50769570D-02  0.93659942D-02  0.15119619D-01
  0.19681251D-01  0.16794047D-01  0.57985809D-02 -0.17092513D-03 -0.78779234D-04
  0.22090520D-03 -0.34146641D-04 -0.26181478D-04 -0.13066393D-04 -0.32818383D-04
 -0.25163054D-04 -0.12558128D-04 -0.27968549D-07 -0.21444509D-07 -0.10702313D-07
 -0.10959600D-03 -0.79126929D-05  0.29203588D-04  0.92488833D-08 -0.62686451D-04
 -0.84965771D-04 -0.11800415D-03 -0.27159332D-04  0.61803857D-08  0.10230922D-07
  0.11641062D-01  0.21475486D-01  0.34668093D-01  0.45127557D-01  0.38507426D-01
  0.13295689D-01 -0.28955481D-03 -0.13345555D-03  0.37422329D-03 -0.29227482D-03
 -0.22409779D-03 -0.11184050D-03 -0.21137785D-03 -0.16207113D-03 -0.80884853D-04
 -0.40703107D-08 -0.31208561D-08 -0.15575259D-08  0.61180643D-03  0.19059874D-03
  0.10918116D-03  0.65177641D-09 -0.49650742D-03 -0.42645173D-03 -0.36269761D-03
 -0.13984831D-03 -0.12469272D-07  0.22540796D-08 -0.11266932D-04 -0.19110849D-04
 -0.21757026D-04 -0.35208209D-05 -0.28887618D-05 -0.48998867D-05 -0.55783478D-05
 -0.22876041D-05 -0.62819689D-05 -0.10655408D-04 -0.12130806D-04 -0.70058776D-06
 -0.62808411D-05 -0.10653495D-04 -0.12128628D-04 -0.69430424D-06 -0.28890561D-05
 -0.49003859D-05 -0.55789161D-05 -0.22904214D-05 -0.11268174D-04 -0.19112955D-04
 -0.21759424D-04 -0.35389000D-05 -0.11266846D-04 -0.19110703D-04 -0.21756860D-04
 -0.35365505D-05  0.50787795D-02  0.93693565D-02  0.15125046D-01  0.19688316D-01
  0.16800076D-01  0.58006625D-02 -0.17100012D-03 -0.78813797D-04  0.22100211D-03
 -0.34138911D-04 -0.26175551D-04 -0.13063435D-04  0.32817779D-04  0.25162591D-04
  0.12557897D-04 -0.24404007D-07 -0.18711445D-07 -0.93383223D-08 -0.10969108D-03
 -0.79822871D-05 -0.29195232D-04  0.48788951D-08 -0.62712356D-04 -0.84993758D-04
 -0.11803353D-03  0.27162900D-04  0.34793081D-08 -0.11213902D-07  0.13291404D-03
  0.24520045D-03  0.39582956D-03  0.51525248D-03  0.43966587D-03  0.15180606D-03
  0.60782784D-05  0.28014729D-05 -0.78556225D-05 -0.17453852D-04 -0.13382507D-04
 -0.66788089D-05 -0.59135372D-05 -0.45341253D-05 -0.22628463D-05  0.16359511D-07
  0.12543435D-07  0.62600534D-08  0.21711973D-04  0.62292406D-04  0.14388230D-04
 -0.11950653D-07  0.63637131D-05 -0.12101630D-04 -0.11652849D-04 -0.48124868D-05
 -0.95426242D-08  0.61280039D-08  0.49025426D-05  0.90442339D-05  0.14600198D-04
  0.19005119D-04  0.16217103D-04  0.55993759D-05  0.42672175D-05  0.19667566D-05
 -0.55149909D-05  0.86387642D-05  0.66236565D-05  0.33056688D-05 -0.11837893D-05
 -0.90765454D-06 -0.45298323D-06 -0.19918308D-08 -0.15272095D-08 -0.76218457D-09
  0.54740672D-04  0.10236831D-04  0.17014403D-04  0.19130348D-08  0.42966443D-05
  0.80800571D-06 -0.41621367D-05  0.42730453D-05  0.46044697D-08  0.47776353D-08
 -0.62800791D-05 -0.10652203D-04 -0.12127156D-04 -0.69957452D-06  0.13285256D-03
  0.24508704D-03  0.39564647D-03  0.51501414D-03  0.43946250D-03  0.15173584D-03
  0.60810848D-05  0.28027664D-05 -0.78592496D-05 -0.17444877D-04 -0.13375626D-04
 -0.66753746D-05  0.59167143D-05  0.45365612D-05  0.22640620D-05  0.15265885D-07
  0.11704912D-07  0.58415715D-08  0.21749786D-04  0.62290140D-04 -0.14371711D-04
 -0.12225846D-07  0.63679687D-05 -0.12094525D-04 -0.11650563D-04  0.48138300D-05
 -0.11767617D-07 -0.95433280D-08  0.49011131D-05  0.90415966D-05  0.14595940D-04
  0.18999578D-04  0.16212374D-04  0.55977431D-05  0.42654774D-05  0.19659546D-05
 -0.55127420D-05  0.86366360D-05  0.66220247D-05  0.33048544D-05  0.11850209D-05
  0.90859889D-06  0.45345453D-06 -0.16935996D-08 -0.12985448D-08 -0.64806485D-09
  0.54719806D-04  0.10227596D-04 -0.17014995D-04  0.22198588D-08  0.42953439D-05
  0.80736280D-06 -0.41610077D-05 -0.42700212D-05  0.51559223D-08 -0.50655734D-08
 -0.28885716D-05 -0.48995642D-05 -0.55779807D-05 -0.22895714D-05 -0.62790990D-05
 -0.10650540D-04 -0.12125264D-04 -0.69474366D-06 -0.28887511D-05 -0.48998687D-05
 -0.55783273D-05 -0.22913703D-05
MO    2     MO 0.0        OCC NO =    2.0000000  ORB. ENERGY =  -10.196320
  0.74300736D-05  0.13707035D-04  0.22127404D-04  0.28803306D-04  0.24577913D-04
  0.84861628D-05 -0.16428949D-04 -0.75720876D-05  0.21232924D-04  0.16436296D-04
  0.12602309D-04  0.62894356D-05 -0.10151593D-04 -0.77835974D-05 -0.38845606D-05
  0.11315547D-08  0.86760435D-09  0.43299538D-09 -0.18806754D-03  0.83274685D-04
  0.10094327D-04  0.38877495D-08 -0.81058325D-05 -0.55284334D-05  0.10442467D-04
  0.19866311D-04 -0.18777004D-08  0.49020089D-09 -0.23987793D-03 -0.44252795D-03
 -0.71437732D-03 -0.92990700D-03 -0.79349133D-03 -0.27397349D-03  0.20475861D-04
  0.94373055D-05 -0.26463190D-04 -0.60141669D-04 -0.46112817D-04 -0.23013528D-04
 -0.21672093D-04 -0.16616786D-04 -0.82929409D-05 -0.40584206D-08 -0.31117395D-08
 -0.15529761D-08  0.31790865D-03  0.19458716D-04 -0.14578526D-03 -0.34137771D-09
  0.20423309D-04  0.44937293D-04  0.29140073D-05  0.13736988D-04  0.17507382D-08
  0.66012108D-09 -0.91834450D-02 -0.16941663D-01 -0.27349097D-01 -0.35600398D-01
 -0.30377884D-01 -0.10488753D-01  0.38206624D-03  0.17609398D-03 -0.49378591D-03
  0.64323361D-04  0.49319073D-04  0.24613674D-04  0.52571390D-05  0.40308407D-05
  0.20116720D-05 -0.22575583D-08 -0.17309525D-08 -0.86386661D-09  0.63964945D-03
 -0.54590230D-03 -0.54228284D-05 -0.24861540D-07  0.11353689D-03  0.12158791D-03
  0.13435534D-03  0.13949710D-04 -0.71562342D-09  0.16996331D-08  0.91764118D-02
  0.16928688D-01  0.27328151D-01  0.35573133D-01  0.30354619D-01  0.10480720D-01
 -0.38180343D-03 -0.17597285D-03  0.49344625D-03 -0.64318375D-04 -0.49315250D-04
 -0.24611766D-04  0.52567170D-05  0.40305172D-05  0.20115106D-05 -0.68781567D-08
 -0.52737343D-08 -0.26319630D-08 -0.63964025D-03  0.54590493D-03 -0.54205256D-05
  0.23770631D-07 -0.11339499D-03 -0.12144132D-03 -0.13421546D-03  0.13953644D-04
  0.37631884D-08 -0.32781535D-09  0.23968870D-03  0.44217885D-03  0.71381377D-03
  0.92917344D-03  0.79286538D-03  0.27375736D-03 -0.20469555D-04 -0.94343993D-05
  0.26455041D-04  0.60139316D-04  0.46111013D-04  0.23012627D-04 -0.21666315D-04
 -0.16612356D-04 -0.82907298D-05  0.41857700D-08  0.32093829D-08  0.16017070D-08
 -0.31791466D-03 -0.19466276D-04 -0.14579016D-03 -0.27135672D-08 -0.20411550D-04
 -0.44931314D-04 -0.29091083D-05  0.13731846D-04 -0.17703956D-08  0.90098375D-10
 -0.74362849D-05 -0.13718494D-04 -0.22145902D-04 -0.28827385D-04 -0.24598460D-04
 -0.84932570D-05  0.16429070D-04  0.75721434D-05 -0.21233081D-04 -0.16439160D-04
 -0.12604505D-04 -0.62905313D-05 -0.10151279D-04 -0.77833566D-05 -0.38844404D-05
 -0.14334748D-08 -0.10990976D-08 -0.54852671D-09  0.18807767D-03 -0.83276392D-04
  0.10091299D-04 -0.30477745D-08  0.81055874D-05  0.55283143D-05 -0.10442068D-04
  0.19866695D-04  0.89866778D-09  0.16517685D-08 -0.12342267D-01 -0.22769072D-01
 -0.36756343D-01 -0.47845837D-01 -0.40826939D-01 -0.14096561D-01  0.28158227D-03
  0.12978101D-03 -0.36391950D-03 -0.32116611D-03 -0.24624980D-03 -0.12289591D-03
 -0.19755840D-03 -0.15147525D-03 -0.75596767D-04 -0.26701770D-07 -0.20473224D-07
 -0.10217574D-07 -0.12381244D-02 -0.21715589D-04  0.53174334D-03 -0.36190455D-08
  0.64842672D-03  0.52616154D-03  0.42785748D-03  0.19391922D-03  0.46982848D-07
  0.25137931D-07  0.12342989D-01  0.22770404D-01  0.36758492D-01  0.47848635D-01
  0.40829327D-01  0.14097385D-01 -0.28158871D-03 -0.12978398D-03  0.36392782D-03
  0.32121401D-03  0.24628653D-03  0.12291424D-03 -0.19758540D-03 -0.15149595D-03
 -0.75607097D-04  0.18695423D-07  0.14334465D-07  0.71539026D-08  0.12382250D-02
  0.21679872D-04  0.53176449D-03 -0.22516045D-08 -0.64847541D-03 -0.52619952D-03
 -0.42789055D-03  0.19393783D-03 -0.18990182D-07  0.21295855D-07  0.37601652D+00
  0.69367705D+00  0.11198098D+01  0.14576597D+01  0.12438237D+01  0.42946242D+00
 -0.14292859D-01 -0.65875654D-02  0.18472221D-01 -0.58596363D-08 -0.44927975D-08
 -0.22422208D-08  0.42800801D-03  0.32816939D-03  0.16377953D-03 -0.94593065D-09
 -0.72527963D-09 -0.36196537D-09 -0.41554936D-02 -0.12240505D-06 -0.89765180D-03
 -0.51212279D-08 -0.69158923D-02 -0.68782765D-02 -0.72330840D-02  0.42903270D-07
  0.34559481D-07 -0.12220429D-08 -0.37596039D+00 -0.69357352D+00 -0.11196427D+01
 -0.14574421D+01 -0.12436380D+01 -0.42939832D+00  0.14290779D-01  0.65866068D-02
 -0.18469533D-01  0.19630627D-07  0.15051519D-07  0.75117631D-08  0.42803889D-03
  0.32819307D-03  0.16379134D-03 -0.34436824D-07 -0.26403972D-07 -0.13177433D-07
  0.41552320D-02  0.11110573D-06 -0.89768985D-03  0.40361237D-07  0.69147906D-02
  0.68771406D-02  0.72319573D-02  0.47384422D-07 -0.33382272D-07  0.60730117D-08
 -0.12338423D-01 -0.22761981D-01 -0.36744896D-01 -0.47830936D-01 -0.40814225D-01
 -0.14092171D-01  0.28147740D-03  0.12973267D-03 -0.36378396D-03  0.32129546D-03
  0.24634898D-03  0.12294541D-03 -0.19752544D-03 -0.15144998D-03 -0.75584154D-04
  0.21770691D-07  0.16692385D-07  0.83306700D-08 -0.12377400D-02  0.21671951D-04
  0.53156788D-03 -0.55271223D-07  0.64825106D-03  0.52603203D-03  0.42773244D-03
 -0.19393782D-03  0.25628722D-07  0.15543762D-07 -0.99789891D-05 -0.16926254D-04