 Generated by Multiwfn
GAUSSIAN             95 MOL ORBITALS    432 PRIMITIVES       24 NUCLEI
  B    1    (CENTRE  1)  -5.48837998  1.75614678  0.00030636  CHARGE =  5.0
  H    2    (CENTRE  2)  -6.59895937  3.71309242  0.00071169  CHARGE =  1.0
  B    3    (CENTRE  3)  -1.37061183  4.06661482  0.00138710  CHARGE =  5.0
  H    4    (CENTRE  4)  -2.44915673  6.04075428  0.00287894  CHARGE =  1.0
  B    5    (CENTRE  5)   2.72512198  1.66610233 -0.00053723  CHARGE =  5.0
  B    6    (CENTRE  6)   6.87864534 -0.63796483 -0.00165190  CHARGE =  5.0
  H    7    (CENTRE  7)   9.12974662 -0.61581430 -0.00239453  CHARGE =  1.0
  B    8    (CENTRE  8)   2.78996207 -3.03981580  0.00233580  CHARGE =  5.0
  H    9    (CENTRE  9)   1.77764270 -5.05366793  0.00526030  CHARGE =  1.0
  B   10    (CENTRE 10)  -1.40654608 -0.68703596  0.00025251  CHARGE =  5.0
  B   11    (CENTRE 11)  -5.58072038 -2.97325471 -0.00134426  CHARGE =  5.0
  H   12    (CENTRE 12)  -6.73986185 -4.90448201 -0.00265028  CHARGE =  1.0
  N   13    (CENTRE 13)  -6.82834287 -0.57597241 -0.00086285  CHARGE =  7.0
  H   14    (CENTRE 14)  -8.72924779 -0.52915830 -0.00136896  CHARGE =  1.0
  N   15    (CENTRE 15)  -2.75693402  1.71684484  0.00068894  CHARGE =  7.0
  N   16    (CENTRE 16)   1.30994682  3.98294291  0.00079127  CHARGE =  7.0
  H   17    (CENTRE 17)   2.24858282  5.63836076  0.00148107  CHARGE =  1.0
  N   18    (CENTRE 18)   5.44308899  1.63214801 -0.00245625  CHARGE =  7.0
  H   19    (CENTRE 19)   6.38153722  3.28763235 -0.00467996  CHARGE =  1.0
  N   20    (CENTRE 20)   5.47989954 -2.95095912  0.00134176  CHARGE =  7.0
  H   21    (CENTRE 21)   6.43337987 -4.59613334  0.00278691  CHARGE =  1.0
  N   22    (CENTRE 22)   1.35828163 -0.72279785  0.00060422  CHARGE =  7.0
  N   23    (CENTRE 23)  -2.89276606 -2.95503220 -0.00078949  CHARGE =  7.0
  H   24    (CENTRE 24)  -1.98323723 -4.62476647 -0.00099041  CHARGE =  1.0
CENTRE ASSIGNMENTS    1  1  1  1  1  1  1  1  1  1  1  1  1  1  1  1  1  1  1  1
CENTRE ASSIGNMENTS    1  1  1  1  1  1  1  1  2  2  2  2  3  3  3  3  3  3  3  3
CENTRE ASSIGNMENTS    3  3  3  3  3  3  3  3  3  3  3  3  3  3  3  3  3  3  3  3
CENTRE ASSIGNMENTS    4  4  4  4  5  5  5  5  5  5  5  5  5  5  5  5  5  5  5  5
CENTRE ASSIGNMENTS    5  5  5  5  5  5  5  5  5  5  5  5  6  6  6  6  6  6  6  6
CENTRE ASSIGNMENTS    6  6  6  6  6  6  6  6  6  6  6  6  6  6  6  6  6  6  6  6
CENTRE ASSIGNMENTS    7  7  7  7  8  8  8  8  8  8  8  8  8  8  8  8  8  8  8  8
CENTRE ASSIGNMENTS    8  8  8  8  8  8  8  8  8  8  8  8  9  9  9  9 10 10 10 10
CENTRE ASSIGNMENTS   10 10 10 10 10 10 10 10 10 10 10 10 10 10 10 10 10 10 10 10
CENTRE ASSIGNMENTS   10 10 10 10 11 11 11 11 11 11 11 11 11 11 11 11 11 11 11 11
CENTRE ASSIGNMENTS   11 11 11 11 11 11 11 11 11 11 11 11 12 12 12 12 13 13 13 13
CENTRE ASSIGNMENTS   13 13 13 13 13 13 13 13 13 13 13 13 13 13 13 13 13 13 13 13
CENTRE ASSIGNMENTS   13 13 13 13 14 14 14 14 15 15 15 15 15 15 15 15 15 15 15 15
CENTRE ASSIGNMENTS   15 15 15 15 15 15 15 15 15 15 15 15 15 15 15 15 16 16 16 16
CENTRE ASSIGNMENTS   16 16 16 16 16 16 16 16 16 16 16 16 16 16 16 16 16 16 16 16
CENTRE ASSIGNMENTS   16 16 16 16 17 17 17 17 18 18 18 18 18 18 18 18 18 18 18 18
CENTRE ASSIGNMENTS   18 18 18 18 18 18 18 18 18 18 18 18 18 18 18 18 19 19 19 19
CENTRE ASSIGNMENTS   20 20 20 20 20 20 20 20 20 20 20 20 20 20 20 20 20 20 20 20
CENTRE ASSIGNMENTS   20 20 20 20 20 20 20 20 21 21 21 21 22 22 22 22 22 22 22 22
CENTRE ASSIGNMENTS   22 22 22 22 22 22 22 22 22 22 22 22 22 22 22 22 22 22 22 22
CENTRE ASSIGNMENTS   23 23 23 23 23 23 23 23 23 23 23 23 23 23 23 23 23 23 23 23
CENTRE ASSIGNMENTS   23 23 23 23 23 23 23 23 24 24 24 24
TYPE ASSIGNMENTS      1  1  1  1  1  1  1  1  1  2  2  2  3  3  3  4  4  4  1  2
TYPE ASSIGNMENTS      3  4  5  6  7  8  9 10  1  1  1  1  1  1  1  1  1  1  1  1
TYPE ASSIGNMENTS      1  2  2  2  3  3  3  4  4  4  1  2  3  4  5  6  7  8  9 10
TYPE ASSIGNMENTS      1  1  1  1  1  1  1  1  1  1  1  1  1  2  2  2  3  3  3  4
TYPE ASSIGNMENTS      4  4  1  2  3  4  5  6  7  8  9 10  1  1  1  1  1  1  1  1
TYPE ASSIGNMENTS      1  2  2  2  3  3  3  4  4  4  1  2  3  4  5  6  7  8  9 10
TYPE ASSIGNMENTS      1  1  1  1  1  1  1  1  1  1  1  1  1  2  2  2  3  3  3  4
TYPE ASSIGNMENTS      4  4  1  2  3  4  5  6  7  8  9 10  1  1  1  1  1  1  1  1
TYPE ASSIGNMENTS      1  1  1  1  1  2  2  2  3  3  3  4  4  4  1  2  3  4  5  6
TYPE ASSIGNMENTS      7  8  9 10  1  1  1  1  1  1  1  1  1  2  2  2  3  3  3  4
TYPE ASSIGNMENTS      4  4  1  2  3  4  5  6  7  8  9 10  1  1  1  1  1  1  1  1
TYPE ASSIGNMENTS      1  1  1  1  1  2  2  2  3  3  3  4  4  4  1  2  3  4  5  6
TYPE ASSIGNMENTS      7  8  9 10  1  1  1  1  1  1  1  1  1  1  1  1  1  2  2  2
TYPE ASSIGNMENTS      3  3  3  4  4  4  1  2  3  4  5  6  7  8  9 10  1  1  1  1
TYPE ASSIGNMENTS      1  1  1  1  1  2  2  2  3  3  3  4  4  4  1  2  3  4  5  6
TYPE ASSIGNMENTS      7  8  9 10  1  1  1  1  1  1  1  1  1  1  1  1  1  2  2  2
TYPE ASSIGNMENTS      3  3  3  4  4  4  1  2  3  4  5  6  7  8  9 10  1  1  1  1
TYPE ASSIGNMENTS      1  1  1  1  1  1  1  1  1  2  2  2  3  3  3  4  4  4  1  2
TYPE ASSIGNMENTS      3  4  5  6  7  8  9 10  1  1  1  1  1  1  1  1  1  1  1  1
TYPE ASSIGNMENTS      1  2  2  2  3  3  3  4  4  4  1  2  3  4  5  6  7  8  9 10
TYPE ASSIGNMENTS      1  1  1  1  1  1  1  1  1  2  2  2  3  3  3  4  4  4  1  2
TYPE ASSIGNMENTS      3  4  5  6  7  8  9 10  1  1  1  1
EXPONENTS  0.2068882D+04 0.3106496D+03 0.7068303D+02 0.1986108D+02 0.6299305D+01
EXPONENTS  0.2127027D+01 0.4727971D+01 0.1190338D+01 0.3594117D+00 0.4727971D+01
EXPONENTS  0.1190338D+01 0.3594117D+00 0.4727971D+01 0.1190338D+01 0.3594117D+00
EXPONENTS  0.4727971D+01 0.1190338D+01 0.3594117D+00 0.1267512D+00 0.1267512D+00
EXPONENTS  0.1267512D+00 0.1267512D+00 0.6000000D+00 0.6000000D+00 0.6000000D+00
EXPONENTS  0.6000000D+00 0.6000000D+00 0.6000000D+00 0.1873114D+02 0.2825394D+01
EXPONENTS  0.6401217D+00 0.1612778D+00 0.2068882D+04 0.3106496D+03 0.7068303D+02
EXPONENTS  0.1986108D+02 0.6299305D+01 0.2127027D+01 0.4727971D+01 0.1190338D+01
EXPONENTS  0.3594117D+00 0.4727971D+01 0.1190338D+01 0.3594117D+00 0.4727971D+01
EXPONENTS  0.1190338D+01 0.3594117D+00 0.4727971D+01 0.1190338D+01 0.3594117D+00
EXPONENTS  0.1267512D+00 0.1267512D+00 0.1267512D+00 0.1267512D+00 0.6000000D+00
EXPONENTS  0.6000000D+00 0.6000000D+00 0.6000000D+00 0.6000000D+00 0.6000000D+00
EXPONENTS  0.1873114D+02 0.2825394D+01 0.6401217D+00 0.1612778D+00 0.2068882D+04
EXPONENTS  0.3106496D+03 0.7068303D+02 0.1986108D+02 0.6299305D+01 0.2127027D+01
EXPONENTS  0.4727971D+01 0.1190338D+01 0.3594117D+00 0.4727971D+01 0.1190338D+01
EXPONENTS  0.3594117D+00 0.4727971D+01 0.1190338D+01 0.3594117D+00 0.4727971D+01
EXPONENTS  0.1190338D+01 0.3594117D+00 0.1267512D+00 0.1267512D+00 0.1267512D+00
EXPONENTS  0.1267512D+00 0.6000000D+00 0.6000000D+00 0.6000000D+00 0.6000000D+00
EXPONENTS  0.6000000D+00 0.6000000D+00 0.2068882D+04 0.3106496D+03 0.7068303D+02
EXPONENTS  0.1986108D+02 0.6299305D+01 0.2127027D+01 0.4727971D+01 0.1190338D+01
EXPONENTS  0.3594117D+00 0.4727971D+01 0.1190338D+01 0.3594117D+00 0.4727971D+01
EXPONENTS  0.1190338D+01 0.3594117D+00 0.4727971D+01 0.1190338D+01 0.3594117D+00
EXPONENTS  0.1267512D+00 0.1267512D+00 0.1267512D+00 0.1267512D+00 0.6000000D+00
EXPONENTS  0.6000000D+00 0.6000000D+00 0.6000000D+00 0.6000000D+00 0.6000000D+00
EXPONENTS  0.1873114D+02 0.2825394D+01 0.6401217D+00 0.1612778D+00 0.2068882D+04
EXPONENTS  0.3106496D+03 0.7068303D+02 0.1986108D+02 0.6299305D+01 0.2127027D+01
EXPONENTS  0.4727971D+01 0.1190338D+01 0.3594117D+00 0.4727971D+01 0.1190338D+01
EXPONENTS  0.3594117D+00 0.4727971D+01 0.1190338D+01 0.3594117D+00 0.4727971D+01
EXPONENTS  0.1190338D+01 0.3594117D+00 0.1267512D+00 0.1267512D+00 0.1267512D+00
EXPONENTS  0.1267512D+00 0.6000000D+00 0.6000000D+00 0.6000000D+00 0.6000000D+00
EXPONENTS  0.6000000D+00 0.6000000D+00 0.1873114D+02 0.2825394D+01 0.6401217D+00
EXPONENTS  0.1612778D+00 0.2068882D+04 0.3106496D+03 0.7068303D+02 0.1986108D+02
EXPONENTS  0.6299305D+01 0.2127027D+01 0.4727971D+01 0.1190338D+01 0.3594117D+00
EXPONENTS  0.4727971D+01 0.1190338D+01 0.3594117D+00 0.4727971D+01 0.1190338D+01
EXPONENTS  0.3594117D+00 0.4727971D+01 0.1190338D+01 0.3594117D+00 0.1267512D+00
EXPONENTS  0.1267512D+00 0.1267512D+00 0.1267512D+00 0.6000000D+00 0.6000000D+00
EXPONENTS  0.6000000D+00 0.6000000D+00 0.6000000D+00 0.6000000D+00 0.2068882D+04
EXPONENTS  0.3106496D+03 0.7068303D+02 0.1986108D+02 0.6299305D+01 0.2127027D+01
EXPONENTS  0.4727971D+01 0.1190338D+01 0.3594117D+00 0.4727971D+01 0.1190338D+01
EXPONENTS  0.3594117D+00 0.4727971D+01 0.1190338D+01 0.3594117D+00 0.4727971D+01
EXPONENTS  0.1190338D+01 0.3594117D+00 0.1267512D+00 0.1267512D+00 0.1267512D+00
EXPONENTS  0.1267512D+00 0.6000000D+00 0.6000000D+00 0.6000000D+00 0.6000000D+00
EXPONENTS  0.6000000D+00 0.6000000D+00 0.1873114D+02 0.2825394D+01 0.6401217D+00
EXPONENTS  0.1612778D+00 0.4173511D+04 0.6274579D+03 0.1429021D+03 0.4023433D+02
EXPONENTS  0.1282021D+02 0.4390437D+01 0.1162636D+02 0.2716280D+01 0.7722184D+00
EXPONENTS  0.1162636D+02 0.2716280D+01 0.7722184D+00 0.1162636D+02 0.2716280D+01
EXPONENTS  0.7722184D+00 0.1162636D+02 0.2716280D+01 0.7722184D+00 0.2120315D+00
EXPONENTS  0.2120315D+00 0.2120315D+00 0.2120315D+00 0.8000000D+00 0.8000000D+00
EXPONENTS  0.8000000D+00 0.8000000D+00 0.8000000D+00 0.8000000D+00 0.1873114D+02
EXPONENTS  0.2825394D+01 0.6401217D+00 0.1612778D+00 0.4173511D+04 0.6274579D+03
EXPONENTS  0.1429021D+03 0.4023433D+02 0.1282021D+02 0.4390437D+01 0.1162636D+02
EXPONENTS  0.2716280D+01 0.7722184D+00 0.1162636D+02 0.2716280D+01 0.7722184D+00
EXPONENTS  0.1162636D+02 0.2716280D+01 0.7722184D+00 0.1162636D+02 0.2716280D+01
EXPONENTS  0.7722184D+00 0.2120315D+00 0.2120315D+00 0.2120315D+00 0.2120315D+00
EXPONENTS  0.8000000D+00 0.8000000D+00 0.8000000D+00 0.8000000D+00 0.8000000D+00
EXPONENTS  0.8000000D+00 0.4173511D+04 0.6274579D+03 0.1429021D+03 0.4023433D+02
EXPONENTS  0.1282021D+02 0.4390437D+01 0.1162636D+02 0.2716280D+01 0.7722184D+00
EXPONENTS  0.1162636D+02 0.2716280D+01 0.7722184D+00 0.1162636D+02 0.2716280D+01
EXPONENTS  0.7722184D+00 0.1162636D+02 0.2716280D+01 0.7722184D+00 0.2120315D+00
EXPONENTS  0.2120315D+00 0.2120315D+00 0.2120315D+00 0.8000000D+00 0.8000000D+00
EXPONENTS  0.8000000D+00 0.8000000D+00 0.8000000D+00 0.8000000D+00 0.1873114D+02
EXPONENTS  0.2825394D+01 0.6401217D+00 0.1612778D+00 0.4173511D+04 0.6274579D+03
EXPONENTS  0.1429021D+03 0.4023433D+02 0.1282021D+02 0.4390437D+01 0.1162636D+02
EXPONENTS  0.2716280D+01 0.7722184D+00 0.1162636D+02 0.2716280D+01 0.7722184D+00
EXPONENTS  0.1162636D+02 0.2716280D+01 0.7722184D+00 0.1162636D+02 0.2716280D+01
EXPONENTS  0.7722184D+00 0.2120315D+00 0.2120315D+00 0.2120315D+00 0.2120315D+00
EXPONENTS  0.8000000D+00 0.8000000D+00 0.8000000D+00 0.8000000D+00 0.8000000D+00
EXPONENTS  0.8000000D+00 0.1873114D+02 0.2825394D+01 0.6401217D+00 0.1612778D+00
EXPONENTS  0.4173511D+04 0.6274579D+03 0.1429021D+03 0.4023433D+02 0.1282021D+02
EXPONENTS  0.4390437D+01 0.1162636D+02 0.2716280D+01 0.7722184D+00 0.1162636D+02
EXPONENTS  0.2716280D+01 0.7722184D+00 0.1162636D+02 0.2716280D+01 0.7722184D+00
EXPONENTS  0.1162636D+02 0.2716280D+01 0.7722184D+00 0.2120315D+00 0.2120315D+00
EXPONENTS  0.2120315D+00 0.2120315D+00 0.8000000D+00 0.8000000D+00 0.8000000D+00
EXPONENTS  0.8000000D+00 0.8000000D+00 0.8000000D+00 0.1873114D+02 0.2825394D+01
EXPONENTS  0.6401217D+00 0.1612778D+00 0.4173511D+04 0.6274579D+03 0.1429021D+03
EXPONENTS  0.4023433D+02 0.1282021D+02 0.4390437D+01 0.1162636D+02 0.2716280D+01
EXPONENTS  0.7722184D+00 0.1162636D+02 0.2716280D+01 0.7722184D+00 0.1162636D+02
EXPONENTS  0.2716280D+01 0.7722184D+00 0.1162636D+02 0.2716280D+01 0.7722184D+00
EXPONENTS  0.2120315D+00 0.2120315D+00 0.2120315D+00 0.2120315D+00 0.8000000D+00
EXPONENTS  0.8000000D+00 0.8000000D+00 0.8000000D+00 0.8000000D+00 0.8000000D+00
EXPONENTS  0.4173511D+04 0.6274579D+03 0.1429021D+03 0.4023433D+02 0.1282021D+02
EXPONENTS  0.4390437D+01 0.1162636D+02 0.2716280D+01 0.7722184D+00 0.1162636D+02
EXPONENTS  0.2716280D+01 0.7722184D+00 0.1162636D+02 0.2716280D+01 0.7722184D+00
EXPONENTS  0.1162636D+02 0.2716280D+01 0.7722184D+00 0.2120315D+00 0.2120315D+00
EXPONENTS  0.2120315D+00 0.2120315D+00 0.8000000D+00 0.8000000D+00 0.8000000D+00
EXPONENTS  0.8000000D+00 0.8000000D+00 0.8000000D+00 0.1873114D+02 0.2825394D+01
EXPONENTS  0.6401217D+00 0.1612778D+00
MO    1     MO 0.0        OCC NO =    1.0000000  ORB. ENERGY =  -14.163217
  0.21983279D-05  0.40492835D-05  0.65104157D-05  0.84018788D-05  0.71313974D-05
  0.24579177D-05 -0.47857012D-04 -0.17061069D-04  0.60092181D-04 -0.14093984D-03
 -0.10372603D-03 -0.56067543D-04 -0.28584234D-03 -0.21036841D-03 -0.11371148D-03
 -0.14008781D-06 -0.10309897D-06 -0.55728595D-07 -0.83518101D-04  0.21159198D-04
  0.34170247D-04  0.17949328D-07  0.42600970D-04  0.14006115D-03 -0.37000816D-04
  0.20908647D-03  0.11245461D-06  0.18124048D-06  0.26121889D-05  0.44307667D-05
  0.50442713D-05  0.24885275D-05 -0.10256010D-05 -0.18891399D-05 -0.30373488D-05
 -0.39197861D-05 -0.33270597D-05 -0.11467092D-05  0.43141197D-05  0.15379877D-05
 -0.54170717D-05  0.52524772D-05  0.38656110D-05  0.20894978D-05  0.54730237D-05
  0.40279243D-05  0.21772338D-05  0.24866254D-08  0.18300558D-08  0.98920910D-09
 -0.69773240D-05  0.74690316D-05  0.30117087D-05 -0.26896702D-09 -0.13381082D-05
  0.41629036D-05 -0.28826678D-05  0.47444905D-05  0.83942691D-09  0.32009244D-08
  0.15894891D-05  0.26960743D-05  0.30693853D-05 -0.30338715D-05  0.13447096D-06
  0.24769328D-06  0.39823989D-06  0.51394004D-06  0.43622512D-06  0.15034998D-06
 -0.39978683D-06 -0.14252438D-06  0.50199671D-06 -0.10066795D-05 -0.74087543D-06
 -0.40046906D-06  0.19469414D-05  0.14328702D-05  0.77451639D-06 -0.46916259D-08
 -0.34528471D-08 -0.18663845D-08 -0.40824391D-06  0.81730590D-06  0.21554987D-06
 -0.86549702D-09  0.29394490D-05 -0.27340719D-05  0.98682854D-06 -0.67707547D-07
 -0.87498698D-09  0.29262391D-08  0.25060205D-06  0.46160481D-06  0.74216567D-06
  0.95778616D-06  0.81295552D-06  0.28019442D-06 -0.85334445D-06 -0.30421809D-06
  0.10715113D-05 -0.17770959D-05 -0.13078708D-05 -0.70694985D-06 -0.90579938D-06
 -0.66663174D-06 -0.36033775D-06  0.62619427D-09  0.46085368D-09  0.24910752D-09
  0.46450062D-06 -0.16125454D-06 -0.26957207D-06  0.37118834D-09  0.72381408D-06
  0.61185990D-06  0.56813539D-06  0.34761466D-06 -0.78660350D-09  0.13975049D-08
  0.14650179D-08  0.24849477D-08  0.28290251D-08 -0.11905762D-07 -0.14132369D-06
 -0.26031589D-06 -0.41853445D-06 -0.54013076D-06 -0.45845544D-06 -0.15801191D-06
  0.91122453D-06  0.32485239D-06 -0.11441891D-05 -0.11166820D-05 -0.82183280D-06
 -0.44422934D-06 -0.13159533D-05 -0.96848843D-06 -0.52350184D-06  0.43537002D-08
  0.32041474D-08  0.17319536D-08 -0.69644648D-06 -0.16880640D-05  0.26069523D-05
 -0.59262741D-08  0.17508145D-05 -0.18354720D-05  0.33821283D-06 -0.12983262D-05
  0.34176945D-08  0.30310276D-08 -0.71092483D-06 -0.12058631D-05 -0.13728325D-05
  0.57002420D-05  0.25922661D-05  0.47749112D-05  0.76770759D-05  0.99074874D-05
  0.84093369D-05  0.28983742D-05 -0.10290271D-04 -0.36684911D-05  0.12921091D-04
 -0.20956853D-04 -0.15423397D-04 -0.83368851D-05  0.20464021D-05  0.15060693D-05
  0.81408306D-06 -0.44115383D-08 -0.32467139D-08 -0.17549623D-08  0.25006186D-04
 -0.13159363D-04  0.95008479D-06 -0.27910649D-08  0.10291050D-04  0.56006301D-05
  0.43096753D-05 -0.17695080D-05 -0.20325807D-09 -0.47713060D-09  0.21486516D-05
  0.39577807D-05  0.63632979D-05  0.82120192D-05  0.69702472D-05  0.24023754D-05
 -0.47954099D-04 -0.17095681D-04  0.60214089D-04 -0.12501498D-03 -0.92005970D-04
 -0.49732442D-04  0.28777682D-03  0.21179211D-03  0.11448104D-03  0.62744707D-07
  0.46177569D-07  0.24960590D-07 -0.80028239D-04  0.17450362D-04 -0.27745541D-04
 -0.31641855D-08  0.38053501D-04  0.15518152D-03 -0.36970651D-04 -0.20318396D-03
 -0.32180185D-07  0.72856809D-07  0.32329185D-05  0.54836416D-05  0.62429321D-05
  0.50493645D-05  0.67395962D+00  0.12411530D+01  0.20053650D+01  0.26245917D+01
  0.22481980D+01  0.77340618D+00 -0.17961097D-01 -0.88790835D-02  0.23422453D-01
 -0.10569797D-02 -0.82287556D-03 -0.39073042D-03  0.18343499D-04  0.14280707D-04
  0.67809847D-05 -0.18897953D-06 -0.14712358D-06 -0.69859481D-07  0.10088073D-02
  0.39720911D-04  0.41500059D-05  0.67052820D-08 -0.94395724D-02 -0.96649920D-02
 -0.94480846D-02 -0.25973183D-05  0.16792456D-08 -0.14495646D-06  0.58015464D-04
  0.98405207D-04  0.11203085D-03 -0.60427149D-04 -0.24369310D-04 -0.44878121D-04
 -0.72510817D-04 -0.94901071D-04 -0.81291273D-04 -0.27965140D-04 -0.28293159D-04
 -0.13986747D-04  0.36896142D-04 -0.18634790D-04 -0.14507481D-04 -0.68886653D-05
 -0.28204525D-04 -0.21957673D-04 -0.10426280D-04 -0.12287111D-07 -0.95657119D-08
 -0.45421384D-08 -0.25724369D-04  0.15936933D-04  0.26375845D-04  0.10322615D-07
 -0.37632505D-04 -0.17024915D-04  0.33590644D-04 -0.29201263D-04 -0.34823122D-07
 -0.45087033D-07  0.19872636D-05  0.36597120D-05  0.59130975D-05  0.77389735D-05
  0.66291243D-05  0.22804956D-05 -0.33945781D-05 -0.16781126D-05  0.44267534D-05
 -0.58291144D-05 -0.45380587D-05 -0.21548308D-05 -0.15535114D-05 -0.12094335D-05
 -0.57428179D-06 -0.27139883D-08 -0.21128832D-08 -0.10032717D-08 -0.96219882D-05
  0.40992720D-05 -0.20105031D-06  0.18249420D-09  0.39680481D-05  0.32107857D-05
  0.56947068D-05 -0.65955458D-06 -0.58407580D-09 -0.24797986D-08  0.30129837D-06
  0.51105906D-06  0.58182267D-06 -0.19182134D-05 -0.27006636D-05 -0.49734977D-05
 -0.80358173D-05 -0.10517157D-04 -0.90088879D-05 -0.30991618D-05 -0.11056214D-05
 -0.54656488D-06  0.14418031D-05 -0.79326144D-06 -0.61756670D-06 -0.29324251D-06
 -0.10716227D-05 -0.83427538D-06 -0.39614346D-06  0.78480112D-09  0.61098020D-09
  0.29011501D-09 -0.29033719D-05  0.16213268D-05  0.76290754D-06 -0.14610941D-08
 -0.40520382D-06  0.16386353D-05  0.22982306D-05  0.55200971D-06  0.24777111D-08
 -0.85823006D-10 -0.15183235D-06 -0.25753640D-06 -0.29319609D-06 -0.29515064D-06
 -0.25403183D-09 -0.46782083D-09 -0.75587102D-09 -0.98927267D-09 -0.84740070D-09
 -0.29151566D-09  0.12142637D-06  0.60027227D-07 -0.15834798D-06  0.56666687D-06
  0.44115921D-06  0.20947800D-06  0.27153269D-05  0.21139254D-05  0.10037665D-05
 -0.94915633D-08 -0.73893336D-08 -0.35087170D-08  0.13350380D-05 -0.60690981D-06
 -0.26276503D-05  0.59241159D-08 -0.93307409D-06 -0.58727939D-06  0.29936814D-06
 -0.10221487D-05  0.80355642D-10  0.31930335D-08 -0.47620920D-06 -0.80774093D-06
 -0.91958450D-06 -0.15200167D-06  0.23293865D-05  0.42897599D-05  0.69310833D-05
  0.90712980D-05  0.77703798D-05  0.26731007D-05 -0.29668814D-05 -0.14666803D-05
  0.38690087D-05 -0.74046989D-05 -0.57646763D-05 -0.27372722D-05 -0.12691960D-05
 -0.98808933D-06 -0.46917977D-06 -0.50834583D-08 -0.39575535D-08 -0.18791864D-08
 -0.19237401D-05  0.50557454D-05  0.17009144D-05  0.28246367D-08 -0.15819967D-05
  0.59625815D-05  0.73278131D-05  0.10094994D-05 -0.29289440D-08 -0.55642776D-09
 -0.41463685D-04 -0.76358840D-04 -0.12337508D-03 -0.16147146D-03 -0.13831478D-03
 -0.47581886D-04 -0.29963182D-04 -0.14812324D-04  0.39073962D-04 -0.93596889D-05
 -0.72866672D-05 -0.34599674D-05  0.17981656D-04  0.13999007D-04  0.66472235D-05
  0.73199665D-08  0.56987108D-08  0.27059495D-08 -0.24400080D-04  0.17842990D-04
 -0.26376402D-04 -0.57652208D-08 -0.41259098D-04 -0.21692398D-04  0.34190072D-04
  0.38254806D-04 -0.19325947D-07 -0.26811948D-07  0.55710903D-06  0.94496236D-06
  0.10758063D-05 -0.19222902D-04
MO    2     MO 0.0        OCC NO =    1.0000000  ORB. ENERGY =  -14.159346
 -0.44892686D-06 -0.82691583D-06 -0.13295107D-05 -0.17157719D-05 -0.14563232D-05
 -0.50193845D-06  0.15122495D-05  0.53911835D-06 -0.18988726D-05 -0.59711139D-05
 -0.43944985D-05 -0.23753800D-05  0.29961249D-06  0.22050269D-06  0.11918941D-06
 -0.38189761D-08 -0.28106121D-08 -0.15192341D-08 -0.13887712D-05 -0.11646666D-05
 -0.10124693D-05 -0.70552226D-09 -0.28243927D-05 -0.19199524D-06 -0.64276725D-06
  0.15194455D-05 -0.38608789D-08  0.45826742D-09  0.28457533D-06  0.48269361D-06
  0.54952962D-06 -0.44030575D-07  0.98012420D-06  0.18053725D-05  0.29026680D-05
  0.37459766D-05  0.31795326D-05  0.10958623D-05 -0.27198321D-05 -0.96962267D-06
  0.34151869D-05  0.45801769D-05  0.33708252D-05  0.18220488D-05 -0.50806663D-05
 -0.37391651D-05 -0.20211494D-05  0.14297574D-08  0.10522437D-08  0.56877448D-09
 -0.70672215D-05 -0.38523872D-05 -0.39149126D-05 -0.24217285D-08  0.10416670D-04
  0.38611142D-05  0.28924261D-06  0.20244159D-05  0.50544770D-08  0.57239572D-08
  0.11883394D-06  0.20156485D-06  0.22947445D-06  0.34582242D-05  0.28405535D-05
  0.52322524D-05  0.84123865D-05  0.10856427D-04  0.92147835D-05  0.31759806D-05
 -0.47585347D-04 -0.16964221D-04  0.59751062D-04  0.29689165D-03  0.21850026D-03
  0.11810702D-03 -0.73088666D-06 -0.53790305D-06 -0.29075539D-06 -0.19942218D-06
 -0.14676666D-06 -0.79332510D-07 -0.71815749D-04 -0.60689256D-04  0.13488662D-04
  0.37327818D-07  0.22387640D-03  0.50107719D-05 -0.35895956D-04  0.23825971D-05
 -0.38829557D-06 -0.11130583D-08  0.26486169D-05  0.48787085D-05  0.78439606D-05
  0.10122857D-04  0.85921396D-05  0.29613792D-05 -0.49391510D-04 -0.17608119D-04
  0.62018990D-04 -0.19020908D-03 -0.13998620D-03 -0.75667432D-04  0.26035779D-03
  0.19161281D-03  0.10357342D-03 -0.75727380D-07 -0.55732292D-07 -0.30125251D-07
 -0.77928304D-04  0.11833316D-04 -0.27730204D-04  0.94792030D-08  0.38319740D-04
  0.15834885D-03 -0.40856338D-04 -0.20567100D-03  0.48153868D-07 -0.17340446D-06
  0.29082779D-05  0.49329899D-05  0.56160346D-05  0.82834709D-05  0.12279807D-05
  0.22619201D-05  0.36367027D-05  0.46932695D-05  0.39835816D-05  0.13729870D-05
 -0.72940946D-05 -0.26003515D-05  0.91589098D-05  0.11805500D-04  0.86883711D-05
  0.46963681D-05  0.19424103D-04  0.14295355D-04  0.77271390D-05 -0.21888951D-07
 -0.16109383D-07 -0.87076845D-08  0.22121442D-04  0.11592432D-04  0.16454949D-04
 -0.18744881D-07  0.14372104D-05  0.10032356D-05  0.13476380D-05 -0.24712410D-06
  0.28492540D-08  0.51549520D-08  0.57921790D-06  0.98246319D-06  0.11184996D-05
  0.13605928D-04  0.11770163D-06  0.21680446D-06  0.34857701D-06  0.44984867D-06
  0.38182526D-06  0.13160045D-06  0.20950557D-06  0.74688931D-07 -0.26306796D-06
 -0.28578566D-05 -0.21032670D-05 -0.11368893D-05  0.33852559D-05  0.24914116D-05
  0.13466950D-05  0.84606285D-08  0.62266807D-08  0.33657385D-08 -0.11456359D-04
 -0.12413766D-05 -0.38565397D-05 -0.42607731D-08  0.61002303D-05  0.42605255D-06
 -0.63948530D-06 -0.68314524D-06  0.11202351D-07 -0.66110915D-08 -0.13533210D-08
 -0.24927948D-08 -0.40079017D-08 -0.51723125D-08 -0.43901866D-08 -0.15131281D-08
  0.61032497D-07  0.21758142D-07 -0.76636123D-07 -0.96030883D-06 -0.70674850D-06
 -0.38202226D-06  0.42389978D-06  0.31197311D-06  0.16863237D-06 -0.19678407D-08
 -0.14482513D-08 -0.78283042D-09  0.30256375D-06  0.34763987D-06  0.12035723D-05
  0.27000373D-09 -0.35503101D-06  0.60606658D-06 -0.16584739D-06  0.29981032D-07
 -0.30499761D-08  0.54639624D-09 -0.38547100D-07 -0.65383178D-07 -0.74436437D-07
  0.12282951D-05  0.36544573D-05  0.67299884D-05  0.10873828D-04  0.14231503D-04
  0.12190558D-04  0.41936931D-05 -0.15552300D-05 -0.76882927D-06  0.20281223D-05
  0.24268656D-05  0.18893537D-05  0.89713195D-06  0.71043882D-06  0.55308796D-06
  0.26262573D-06  0.75073420D-09  0.58445856D-09  0.27752160D-09 -0.44302463D-05
 -0.20877118D-05 -0.38217270D-06 -0.46902883D-09  0.14397578D-05  0.14035501D-05
  0.23933454D-05  0.69048865D-07 -0.29190103D-09 -0.76773691D-09 -0.12930910D-06
 -0.21933271D-06 -0.24970254D-06 -0.83172167D-06  0.32793104D-05  0.60391241D-05
  0.97575792D-05  0.12770574D-04  0.10939141D-04  0.37631912D-05 -0.34890167D-05
 -0.17247984D-05  0.45499075D-05  0.99590496D-05  0.77532792D-05  0.36815312D-05
  0.17336972D-05  0.13497109D-05  0.64089049D-06 -0.71999888D-08 -0.56053063D-08
 -0.26615977D-08 -0.49633174D-05 -0.99895542D-05 -0.44879442D-05  0.39720757D-08
  0.40018425D-05 -0.18041093D-05  0.70820572D-05 -0.40329766D-05  0.55664602D-08
 -0.84255977D-08 -0.35435419D-03 -0.65257285D-03 -0.10543799D-02 -0.13799567D-02
 -0.11820566D-02 -0.40664116D-03 -0.25259680D-04 -0.12487144D-04  0.32940286D-04
  0.20413762D-04  0.15892440D-04  0.75462927D-05 -0.74432328D-05 -0.57946756D-05
 -0.27515169D-05  0.21557195D-08  0.16782620D-08  0.79689818D-09 -0.53955194D-04
 -0.15187566D-04  0.21842778D-04  0.92290238D-08 -0.20707835D-04 -0.93670478D-05
  0.48901183D-04  0.38844667D-04  0.91780194D-07 -0.59373502D-07  0.29270397D-05
  0.49648133D-05  0.56522645D-05  0.51988286D-05  0.67394060D+00  0.12411179D+01
  0.20053084D+01  0.26245177D+01  0.22481346D+01  0.77338435D+00 -0.18008344D-01
 -0.89024398D-02  0.23484066D-01  0.49106326D-03  0.38230059D-03  0.18152984D-03
  0.91520630D-03  0.71250272D-03  0.33832149D-03 -0.12699583D-05 -0.98868281D-06
 -0.46946157D-06  0.10406476D-02 -0.30021916D-04 -0.31341397D-04  0.54018989D-07
 -0.96753917D-02 -0.95616638D-02 -0.94749089D-02  0.19889475D-03  0.13046180D-06
 -0.16486064D-07  0.59388063D-04  0.10073339D-03  0.11468141D-03 -0.63122445D-04
 -0.30501170D-03 -0.56170453D-03 -0.90756149D-03 -0.11878029D-02 -0.10174596D-02
 -0.35001790D-03 -0.25484789D-04 -0.12598427D-04  0.33233843D-04 -0.99130902D-05
 -0.77174990D-05 -0.36645415D-05  0.11644267D-04  0.90652476D-05  0.43045002D-05
 -0.18908983D-07 -0.14720945D-07 -0.69900256D-08 -0.35993569D-04  0.14003021D-04
 -0.28075880D-04  0.26999793D-07 -0.48750700D-06 -0.49542204D-04  0.39104880D-04
  0.26308582D-05  0.51674145D-07  0.14950805D-06  0.32076584D-06  0.54407958D-06
  0.61941537D-06 -0.14768295D-04 -0.18435185D-04 -0.33949933D-04 -0.54853843D-04
 -0.71791889D-04 -0.61496187D-04 -0.21155401D-04 -0.32320056D-04 -0.15977447D-04
  0.42147481D-04  0.27855499D-04  0.21685951D-04  0.10297256D-04  0.66559988D-05
  0.51818013D-05  0.24605026D-05 -0.13008586D-07 -0.10127392D-07 -0.48088440D-08
 -0.38403659D-04 -0.21744389D-04 -0.11836291D-04  0.52104148D-08 -0.29186992D-04
 -0.18156785D-04  0.40865431D-04 -0.35759061D-04  0.88385761D-07  0.48026548D-07
 -0.42641253D-06 -0.78527430D-06 -0.12687893D-05 -0.16605725D-05 -0.14224291D-05
 -0.48933211D-06 -0.83704040D-06 -0.41379162D-06  0.10915558D-05  0.17907148D-05
  0.13941000D-05  0.66196801D-06  0.47502197D-06  0.36981219D-06  0.17559991D-06
 -0.91872992D-08 -0.71524591D-08 -0.33962406D-08 -0.22378876D-05 -0.83639711D-06
 -0.11402120D-06  0.36380239D-08  0.53623546D-06 -0.79139746D-06  0.17410190D-05
  0.45712570D-06  0.32101420D-09  0.81591992D-09  0.21042128D-06  0.35691432D-06
  0.40633434D-06  0.10679191D-05
MO    3     MO 0.0        OCC NO =    1.0000000  ORB. ENERGY =  -14.156513
 -0.14743148D-06 -0.27156635D-06 -0.43662288D-06 -0.56347439D-06 -0.47826919D-06
 -0.16484095D-06  0.49290074D-06  0.17571957D-06 -0.61891621D-06 -0.18604375D-05
 -0.13692069D-05 -0.74010415D-06  0.92508289D-06  0.68082363D-06  0.36800896D-06
 -0.19785184D-08 -0.14561096D-08 -0.78707813D-09  0.15259306D-05 -0.70699295D-07
 -0.24299341D-05 -0.64659335D-09 -0.59651033D-06  0.28854318D-06 -0.71377023D-06
  0.11671762D-05 -0.20978935D-08 -0.56328955D-09  0.31754322D-07  0.53861341D-07
  0.61319232D-07  0.16218771D-05 -0.16046653D-06 -0.29557669D-06 -0.47522657D-06
 -0.61329357D-06 -0.52055501D-06 -0.17941524D-06  0.95102340D-06  0.33904073D-06
 -0.11941629D-05 -0.53684314D-06 -0.39509486D-06 -0.21356257D-06 -0.26934869D-05
 -0.19822975D-05 -0.10715011D-05 -0.20812040D-08 -0.15316821D-08 -0.82792768D-09
  0.25758512D-05 -0.94925497D-06 -0.28276048D-05 -0.10262512D-08 -0.10861627D-05
  0.13788101D-05  0.14998380D-06 -0.17729841D-05  0.22784888D-08  0.28893934D-08
 -0.87708340D-07 -0.14876995D-06 -0.16936932D-06  0.15142203D-05  0.25044041D-05
  0.46130707D-05  0.74168697D-05  0.95716839D-05  0.81243115D-05  0.28001369D-05
 -0.12215384D-04 -0.43547959D-05  0.15338381D-04  0.95525935D-05  0.70303228D-05
  0.38001351D-05 -0.16817992D-04 -0.12377362D-04 -0.66903969D-05  0.53708375D-08
  0.39527194D-08  0.21365829D-08  0.21939998D-04  0.47028282D-05 -0.52928812D-05
  0.18484160D-08  0.41177270D-05  0.38771244D-05  0.38150930D-05 -0.83238615D-06
 -0.91851456D-08  0.27575067D-07  0.20755881D-05  0.38231989D-05  0.61469181D-05
  0.79327747D-05  0.67332284D-05  0.23206842D-05 -0.48403040D-04 -0.17255729D-04
  0.60777807D-04 -0.17869652D-03 -0.13151342D-03 -0.71087597D-04 -0.25546250D-03
 -0.18801008D-03 -0.10162602D-03  0.35475750D-06  0.26108718D-06  0.14112675D-06
 -0.75262164D-04  0.12787993D-04  0.27502230D-04 -0.36158212D-07  0.31379401D-04
  0.15653848D-03 -0.36009316D-04  0.19224982D-03 -0.27124253D-06 -0.47115855D-06
  0.31119507D-05  0.52784574D-05  0.60093372D-05  0.56681748D-05  0.25795693D-05
  0.47515239D-05  0.76394739D-05  0.98589610D-05  0.83681484D-05  0.28841781D-05
 -0.48540735D-04 -0.17304817D-04  0.60950705D-04  0.31558957D-03  0.23226117D-03
  0.12554528D-03  0.31794659D-04  0.23399584D-04  0.12648293D-04 -0.12463998D-06
 -0.91729990D-07 -0.49583265D-07 -0.88828438D-04 -0.40850691D-04  0.39846979D-05
  0.19837971D-08  0.21338387D-03 -0.23348435D-04 -0.36863785D-04 -0.86375769D-05
 -0.15826753D-06 -0.19564460D-07  0.14103976D-05  0.23923013D-05  0.27235505D-05
  0.10273387D-04 -0.29092230D-06 -0.53587405D-06 -0.86157535D-06 -0.11118878D-05
 -0.94375482D-06 -0.32527590D-06  0.22596962D-05  0.80558378D-06 -0.28374122D-05
 -0.75887972D-05 -0.55850481D-05 -0.30189136D-05 -0.42518125D-05 -0.31291622D-05
 -0.16914215D-05  0.48784511D-08  0.35903429D-08  0.19407058D-08 -0.51358096D-05
 -0.49039965D-06 -0.48385858D-05 -0.61391379D-08  0.62692258D-05  0.18204708D-05
 -0.18401688D-05  0.40548831D-05 -0.22250952D-08  0.13562341D-08 -0.96470150D-06
 -0.17769642D-05 -0.28569932D-05 -0.36870320D-05 -0.31295012D-05 -0.10786184D-05
  0.29996277D-05  0.10693701D-05 -0.37665153D-05 -0.89392115D-05 -0.65788985D-05
 -0.35561245D-05  0.13227908D-05  0.97352058D-06  0.52622189D-06 -0.98921523D-09
 -0.72802243D-09 -0.39352156D-09 -0.43657915D-05 -0.87049965D-06 -0.19283112D-05