 Generated by Multiwfn
GAUSSIAN             93 MOL ORBITALS    432 PRIMITIVES       24 NUCLEI
  B    1    (CENTRE  1)  -5.48837998  1.75614678  0.00030636  CHARGE =  5.0
  H    2    (CENTRE  2)  -6.59895937  3.71309242  0.00071169  CHARGE =  1.0
  B    3    (CENTRE  3)  -1.37061183  4.06661482  0.00138710  CHARGE =  5.0
  H    4    (CENTRE  4)  -2.44915673  6.04075428  0.00287894  CHARGE =  1.0
  B    5    (CENTRE  5)   2.72512198  1.66610233 -0.00053723  CHARGE =  5.0
  B    6    (CENTRE  6)   6.87864534 -0.63796483 -0.00165190  CHARGE =  5.0
  H    7    (CENTRE  7)   9.12974662 -0.61581430 -0.00239453  CHARGE =  1.0
  B    8    (CENTRE  8)   2.78996207 -3.03981580  0.00233580  CHARGE =  5.0
  H    9    (CENTRE  9)   1.77764270 -5.05366793  0.00526030  CHARGE =  1.0
  B   10    (CENTRE 10)  -1.40654608 -0.68703596  0.00025251  CHARGE =  5.0
  B   11    (CENTRE 11)  -5.58072038 -2.97325471 -0.00134426  CHARGE =  5.0
  H   12    (CENTRE 12)  -6.73986185 -4.90448201 -0.00265028  CHARGE =  1.0
  N   13    (CENTRE 13)  -6.82834287 -0.57597241 -0.00086285  CHARGE =  7.0
  H   14    (CENTRE 14)  -8.72924779 -0.52915830 -0.00136896  CHARGE =  1.0
  N   15    (CENTRE 15)  -2.75693402  1.71684484  0.00068894  CHARGE =  7.0
  N   16    (CENTRE 16)   1.30994682  3.98294291  0.00079127  CHARGE =  7.0
  H   17    (CENTRE 17)   2.24858282  5.63836076  0.00148107  CHARGE =  1.0
  N   18    (CENTRE 18)   5.44308899  1.63214801 -0.00245625  CHARGE =  7.0
  H   19    (CENTRE 19)   6.38153722  3.28763235 -0.00467996  CHARGE =  1.0
  N   20    (CENTRE 20)   5.47989954 -2.95095912  0.00134176  CHARGE =  7.0
  H   21    (CENTRE 21)   6.43337987 -4.59613334  0.00278691  CHARGE =  1.0
  N   22    (CENTRE 22)   1.35828163 -0.72279785  0.00060422  CHARGE =  7.0
  N   23    (CENTRE 23)  -2.89276606 -2.95503220 -0.00078949  CHARGE =  7.0
  H   24    (CENTRE 24)  -1.98323723 -4.62476647 -0.00099041  CHARGE =  1.0
CENTRE ASSIGNMENTS    1  1  1  1  1  1  1  1  1  1  1  1  1  1  1  1  1  1  1  1
CENTRE ASSIGNMENTS    1  1  1  1  1  1  1  1  2  2  2  2  3  3  3  3  3  3  3  3
CENTRE ASSIGNMENTS    3  3  3  3  3  3  3  3  3  3  3  3  3  3  3  3  3  3  3  3
CENTRE ASSIGNMENTS    4  4  4  4  5  5  5  5  5  5  5  5  5  5  5  5  5  5  5  5
CENTRE ASSIGNMENTS    5  5  5  5  5  5  5  5  5  5  5  5  6  6  6  6  6  6  6  6
CENTRE ASSIGNMENTS    6  6  6  6  6  6  6  6  6  6  6  6  6  6  6  6  6  6  6  6
CENTRE ASSIGNMENTS    7  7  7  7  8  8  8  8  8  8  8  8  8  8  8  8  8  8  8  8
CENTRE ASSIGNMENTS    8  8  8  8  8  8  8  8  8  8  8  8  9  9  9  9 10 10 10 10
CENTRE ASSIGNMENTS   10 10 10 10 10 10 10 10 10 10 10 10 10 10 10 10 10 10 10 10
CENTRE ASSIGNMENTS   10 10 10 10 11 11 11 11 11 11 11 11 11 11 11 11 11 11 11 11
CENTRE ASSIGNMENTS   11 11 11 11 11 11 11 11 11 11 11 11 12 12 12 12 13 13 13 13
CENTRE ASSIGNMENTS   13 13 13 13 13 13 13 13 13 13 13 13 13 13 13 13 13 13 13 13
CENTRE ASSIGNMENTS   13 13 13 13 14 14 14 14 15 15 15 15 15 15 15 15 15 15 15 15
CENTRE ASSIGNMENTS   15 15 15 15 15 15 15 15 15 15 15 15 15 15 15 15 16 16 16 16
CENTRE ASSIGNMENTS   16 16 16 16 16 16 16 16 16 16 16 16 16 16 16 16 16 16 16 16
CENTRE ASSIGNMENTS   16 16 16 16 17 17 17 17 18 18 18 18 18 18 18 18 18 18 18 18
CENTRE ASSIGNMENTS   18 18 18 18 18 18 18 18 18 18 18 18 18 18 18 18 19 19 19 19
CENTRE ASSIGNMENTS   20 20 20 20 20 20 20 20 20 20 20 20 20 20 20 20 20 20 20 20
CENTRE ASSIGNMENTS   20 20 20 20 20 20 20 20 21 21 21 21 22 22 22 22 22 22 22 22
CENTRE ASSIGNMENTS   22 22 22 22 22 22 22 22 22 22 22 22 22 22 22 22 22 22 22 22
CENTRE ASSIGNMENTS   23 23 23 23 23 23 23 23 23 23 23 23 23 23 23 23 23 23 23 23
CENTRE ASSIGNMENTS   23 23 23 23 23 23 23 23 24 24 24 24
TYPE ASSIGNMENTS      1  1  1  1  1  1  1  1  1  2  2  2  3  3  3  4  4  4  1  2
TYPE ASSIGNMENTS      3  4  5  6  7  8  9 10  1  1  1  1  1  1  1  1  1  1  1  1
TYPE ASSIGNMENTS      1  2  2  2  3  3  3  4  4  4  1  2  3  4  5  6  7  8  9 10
TYPE ASSIGNMENTS      1  1  1  1  1  1  1  1  1  1  1  1  1  2  2  2  3  3  3  4
TYPE ASSIGNMENTS      4  4  1  2  3  4  5  6  7  8  9 10  1  1  1  1  1  1  1  1
TYPE ASSIGNMENTS      1  2  2  2  3  3  3  4  4  4  1  2  3  4  5  6  7  8  9 10
TYPE ASSIGNMENTS      1  1  1  1  1  1  1  1  1  1  1  1  1  2  2  2  3  3  3  4
TYPE ASSIGNMENTS      4  4  1  2  3  4  5  6  7  8  9 10  1  1  1  1  1  1  1  1
TYPE ASSIGNMENTS      1  1  1  1  1  2  2  2  3  3  3  4  4  4  1  2  3  4  5  6
TYPE ASSIGNMENTS      7  8  9 10  1  1  1  1  1  1  1  1  1  2  2  2  3  3  3  4
TYPE ASSIGNMENTS      4  4  1  2  3  4  5  6  7  8  9 10  1  1  1  1  1  1  1  1
TYPE ASSIGNMENTS      1  1  1  1  1  2  2  2  3  3  3  4  4  4  1  2  3  4  5  6
TYPE ASSIGNMENTS      7  8  9 10  1  1  1  1  1  1  1  1  1  1  1  1  1  2  2  2
TYPE ASSIGNMENTS      3  3  3  4  4  4  1  2  3  4  5  6  7  8  9 10  1  1  1  1
TYPE ASSIGNMENTS      1  1  1  1  1  2  2  2  3  3  3  4  4  4  1  2  3  4  5  6
TYPE ASSIGNMENTS      7  8  9 10  1  1  1  1  1  1  1  1  1  1  1  1  1  2  2  2
TYPE ASSIGNMENTS      3  3  3  4  4  4  1  2  3  4  5  6  7  8  9 10  1  1  1  1
TYPE ASSIGNMENTS      1  1  1  1  1  1  1  1  1  2  2  2  3  3  3  4  4  4  1  2
TYPE ASSIGNMENTS      3  4  5  6  7  8  9 10  1  1  1  1  1  1  1  1  1  1  1  1
TYPE ASSIGNMENTS      1  2  2  2  3  3  3  4  4  4  1  2  3  4  5  6  7  8  9 10
TYPE ASSIGNMENTS      1  1  1  1  1  1  1  1  1  2  2  2  3  3  3  4  4  4  1  2
TYPE ASSIGNMENTS      3  4  5  6  7  8  9 10  1  1  1  1
EXPONENTS  0.2068882D+04 0.3106496D+03 0.7068303D+02 0.1986108D+02 0.6299305D+01
EXPONENTS  0.2127027D+01 0.4727971D+01 0.1190338D+01 0.3594117D+00 0.4727971D+01
EXPONENTS  0.1190338D+01 0.3594117D+00 0.4727971D+01 0.1190338D+01 0.3594117D+00
EXPONENTS  0.4727971D+01 0.1190338D+01 0.3594117D+00 0.1267512D+00 0.1267512D+00
EXPONENTS  0.1267512D+00 0.1267512D+00 0.6000000D+00 0.6000000D+00 0.6000000D+00
EXPONENTS  0.6000000D+00 0.6000000D+00 0.6000000D+00 0.1873114D+02 0.2825394D+01
EXPONENTS  0.6401217D+00 0.1612778D+00 0.2068882D+04 0.3106496D+03 0.7068303D+02
EXPONENTS  0.1986108D+02 0.6299305D+01 0.2127027D+01 0.4727971D+01 0.1190338D+01
EXPONENTS  0.3594117D+00 0.4727971D+01 0.1190338D+01 0.3594117D+00 0.4727971D+01
EXPONENTS  0.1190338D+01 0.3594117D+00 0.4727971D+01 0.1190338D+01 0.3594117D+00
EXPONENTS  0.1267512D+00 0.1267512D+00 0.1267512D+00 0.1267512D+00 0.6000000D+00
EXPONENTS  0.6000000D+00 0.6000000D+00 0.6000000D+00 0.6000000D+00 0.6000000D+00
EXPONENTS  0.1873114D+02 0.2825394D+01 0.6401217D+00 0.1612778D+00 0.2068882D+04
EXPONENTS  0.3106496D+03 0.7068303D+02 0.1986108D+02 0.6299305D+01 0.2127027D+01
EXPONENTS  0.4727971D+01 0.1190338D+01 0.3594117D+00 0.4727971D+01 0.1190338D+01
EXPONENTS  0.3594117D+00 0.4727971D+01 0.1190338D+01 0.3594117D+00 0.4727971D+01
EXPONENTS  0.1190338D+01 0.3594117D+00 0.1267512D+00 0.1267512D+00 0.1267512D+00
EXPONENTS  0.1267512D+00 0.6000000D+00 0.6000000D+00 0.6000000D+00 0.6000000D+00
EXPONENTS  0.6000000D+00 0.6000000D+00 0.2068882D+04 0.3106496D+03 0.7068303D+02
EXPONENTS  0.1986108D+02 0.6299305D+01 0.2127027D+01 0.4727971D+01 0.1190338D+01
EXPONENTS  0.3594117D+00 0.4727971D+01 0.1190338D+01 0.3594117D+00 0.4727971D+01
EXPONENTS  0.1190338D+01 0.3594117D+00 0.4727971D+01 0.1190338D+01 0.3594117D+00
EXPONENTS  0.1267512D+00 0.1267512D+00 0.1267512D+00 0.1267512D+00 0.6000000D+00
EXPONENTS  0.6000000D+00 0.6000000D+00 0.6000000D+00 0.6000000D+00 0.6000000D+00
EXPONENTS  0.1873114D+02 0.2825394D+01 0.6401217D+00 0.1612778D+00 0.2068882D+04
EXPONENTS  0.3106496D+03 0.7068303D+02 0.1986108D+02 0.6299305D+01 0.2127027D+01
EXPONENTS  0.4727971D+01 0.1190338D+01 0.3594117D+00 0.4727971D+01 0.1190338D+01
EXPONENTS  0.3594117D+00 0.4727971D+01 0.1190338D+01 0.3594117D+00 0.4727971D+01
EXPONENTS  0.1190338D+01 0.3594117D+00 0.1267512D+00 0.1267512D+00 0.1267512D+00
EXPONENTS  0.1267512D+00 0.6000000D+00 0.6000000D+00 0.6000000D+00 0.6000000D+00
EXPONENTS  0.6000000D+00 0.6000000D+00 0.1873114D+02 0.2825394D+01 0.6401217D+00
EXPONENTS  0.1612778D+00 0.2068882D+04 0.3106496D+03 0.7068303D+02 0.1986108D+02
EXPONENTS  0.6299305D+01 0.2127027D+01 0.4727971D+01 0.1190338D+01 0.3594117D+00
EXPONENTS  0.4727971D+01 0.1190338D+01 0.3594117D+00 0.4727971D+01 0.1190338D+01
EXPONENTS  0.3594117D+00 0.4727971D+01 0.1190338D+01 0.3594117D+00 0.1267512D+00
EXPONENTS  0.1267512D+00 0.1267512D+00 0.1267512D+00 0.6000000D+00 0.6000000D+00
EXPONENTS  0.6000000D+00 0.6000000D+00 0.6000000D+00 0.6000000D+00 0.2068882D+04
EXPONENTS  0.3106496D+03 0.7068303D+02 0.1986108D+02 0.6299305D+01 0.2127027D+01
EXPONENTS  0.4727971D+01 0.1190338D+01 0.3594117D+00 0.4727971D+01 0.1190338D+01
EXPONENTS  0.3594117D+00 0.4727971D+01 0.1190338D+01 0.3594117D+00 0.4727971D+01
EXPONENTS  0.1190338D+01 0.3594117D+00 0.1267512D+00 0.1267512D+00 0.1267512D+00
EXPONENTS  0.1267512D+00 0.6000000D+00 0.6000000D+00 0.6000000D+00 0.6000000D+00
EXPONENTS  0.6000000D+00 0.6000000D+00 0.1873114D+02 0.2825394D+01 0.6401217D+00
EXPONENTS  0.1612778D+00 0.4173511D+04 0.6274579D+03 0.1429021D+03 0.4023433D+02
EXPONENTS  0.1282021D+02 0.4390437D+01 0.1162636D+02 0.2716280D+01 0.7722184D+00
EXPONENTS  0.1162636D+02 0.2716280D+01 0.7722184D+00 0.1162636D+02 0.2716280D+01
EXPONENTS  0.7722184D+00 0.1162636D+02 0.2716280D+01 0.7722184D+00 0.2120315D+00
EXPONENTS  0.2120315D+00 0.2120315D+00 0.2120315D+00 0.8000000D+00 0.8000000D+00
EXPONENTS  0.8000000D+00 0.8000000D+00 0.8000000D+00 0.8000000D+00 0.1873114D+02
EXPONENTS  0.2825394D+01 0.6401217D+00 0.1612778D+00 0.4173511D+04 0.6274579D+03
EXPONENTS  0.1429021D+03 0.4023433D+02 0.1282021D+02 0.4390437D+01 0.1162636D+02
EXPONENTS  0.2716280D+01 0.7722184D+00 0.1162636D+02 0.2716280D+01 0.7722184D+00
EXPONENTS  0.1162636D+02 0.2716280D+01 0.7722184D+00 0.1162636D+02 0.2716280D+01
EXPONENTS  0.7722184D+00 0.2120315D+00 0.2120315D+00 0.2120315D+00 0.2120315D+00
EXPONENTS  0.8000000D+00 0.8000000D+00 0.8000000D+00 0.8000000D+00 0.8000000D+00
EXPONENTS  0.8000000D+00 0.4173511D+04 0.6274579D+03 0.1429021D+03 0.4023433D+02
EXPONENTS  0.1282021D+02 0.4390437D+01 0.1162636D+02 0.2716280D+01 0.7722184D+00
EXPONENTS  0.1162636D+02 0.2716280D+01 0.7722184D+00 0.1162636D+02 0.2716280D+01
EXPONENTS  0.7722184D+00 0.1162636D+02 0.2716280D+01 0.7722184D+00 0.2120315D+00
EXPONENTS  0.2120315D+00 0.2120315D+00 0.2120315D+00 0.8000000D+00 0.8000000D+00
EXPONENTS  0.8000000D+00 0.8000000D+00 0.8000000D+00 0.8000000D+00 0.1873114D+02
EXPONENTS  0.2825394D+01 0.6401217D+00 0.1612778D+00 0.4173511D+04 0.6274579D+03
EXPONENTS  0.1429021D+03 0.4023433D+02 0.1282021D+02 0.4390437D+01 0.1162636D+02
EXPONENTS  0.2716280D+01 0.7722184D+00 0.1162636D+02 0.2716280D+01 0.7722184D+00
EXPONENTS  0.1162636D+02 0.2716280D+01 0.7722184D+00 0.1162636D+02 0.2716280D+01
EXPONENTS  0.7722184D+00 0.2120315D+00 0.2120315D+00 0.2120315D+00 0.2120315D+00
EXPONENTS  0.8000000D+00 0.8000000D+00 0.8000000D+00 0.8000000D+00 0.8000000D+00
EXPONENTS  0.8000000D+00 0.1873114D+02 0.2825394D+01 0.6401217D+00 0.1612778D+00
EXPONENTS  0.4173511D+04 0.6274579D+03 0.1429021D+03 0.4023433D+02 0.1282021D+02
EXPONENTS  0.4390437D+01 0.1162636D+02 0.2716280D+01 0.7722184D+00 0.1162636D+02
EXPONENTS  0.2716280D+01 0.7722184D+00 0.1162636D+02 0.2716280D+01 0.7722184D+00
EXPONENTS  0.1162636D+02 0.2716280D+01 0.7722184D+00 0.2120315D+00 0.2120315D+00
EXPONENTS  0.2120315D+00 0.2120315D+00 0.8000000D+00 0.8000000D+00 0.8000000D+00
EXPONENTS  0.8000000D+00 0.8000000D+00 0.8000000D+00 0.1873114D+02 0.2825394D+01
EXPONENTS  0.6401217D+00 0.1612778D+00 0.4173511D+04 0.6274579D+03 0.1429021D+03
EXPONENTS  0.4023433D+02 0.1282021D+02 0.4390437D+01 0.1162636D+02 0.2716280D+01
EXPONENTS  0.7722184D+00 0.1162636D+02 0.2716280D+01 0.7722184D+00 0.1162636D+02
EXPONENTS  0.2716280D+01 0.7722184D+00 0.1162636D+02 0.2716280D+01 0.7722184D+00
EXPONENTS  0.2120315D+00 0.2120315D+00 0.2120315D+00 0.2120315D+00 0.8000000D+00
EXPONENTS  0.8000000D+00 0.8000000D+00 0.8000000D+00 0.8000000D+00 0.8000000D+00
EXPONENTS  0.4173511D+04 0.6274579D+03 0.1429021D+03 0.4023433D+02 0.1282021D+02
EXPONENTS  0.4390437D+01 0.1162636D+02 0.2716280D+01 0.7722184D+00 0.1162636D+02
EXPONENTS  0.2716280D+01 0.7722184D+00 0.1162636D+02 0.2716280D+01 0.7722184D+00
EXPONENTS  0.1162636D+02 0.2716280D+01 0.7722184D+00 0.2120315D+00 0.2120315D+00
EXPONENTS  0.2120315D+00 0.2120315D+00 0.8000000D+00 0.8000000D+00 0.8000000D+00
EXPONENTS  0.8000000D+00 0.8000000D+00 0.8000000D+00 0.1873114D+02 0.2825394D+01
EXPONENTS  0.6401217D+00 0.1612778D+00
MO    1     MO 0.0        OCC NO =    1.0000000  ORB. ENERGY =  -14.516334
 -0.63296311D-06 -0.11659076D-05 -0.18745397D-05 -0.24191475D-05 -0.20533386D-05
 -0.70770664D-06  0.36678670D-05  0.13075980D-05 -0.46055974D-05 -0.44022531D-05
 -0.32398804D-05 -0.17512686D-05 -0.27102601D-05 -0.19946419D-05 -0.10781737D-05
  0.22673292D-08  0.16686627D-08  0.90197048D-09 -0.66008847D-05 -0.65255088D-05
 -0.52485099D-05 -0.53863374D-08  0.84084711D-05  0.84054384D-07 -0.19374200D-05
 -0.21074719D-05  0.23406011D-08 -0.80989201D-09  0.15998573D-05  0.27136608D-05
  0.30894069D-05 -0.30128974D-05  0.28315190D-05  0.52156110D-05  0.83856307D-05
  0.10821898D-04  0.91854757D-05  0.31658793D-05 -0.52588013D-04 -0.18747676D-04
  0.66032715D-04  0.34208926D-03  0.25176388D-03  0.13608717D-03 -0.35607219D-04
 -0.26205475D-04 -0.14164975D-04 -0.83011503D-07 -0.61093112D-07 -0.33022962D-07
 -0.82365472D-04 -0.39967759D-04 -0.57594364D-05  0.50296059D-08  0.22546495D-03
 -0.21910894D-04 -0.44444084D-04  0.73553632D-05 -0.97938941D-07  0.17000310D-07
  0.22402514D-05  0.37998904D-05  0.43260409D-05  0.85938083D-05  0.35186077D-05
  0.64812171D-05  0.10420465D-04  0.13447910D-04  0.11414398D-04  0.39341030D-05
 -0.55663965D-04 -0.19844255D-04  0.69895067D-04 -0.16398368D-03 -0.12068536D-03
 -0.65234654D-04  0.26846599D-03  0.19758012D-03  0.10679896D-03  0.13994636D-06
  0.10299487D-06  0.55672324D-07 -0.73084158D-04  0.42501869D-04 -0.49938546D-04
 -0.30228534D-07  0.63849862D-04  0.16978982D-03 -0.39821542D-04 -0.19021199D-03
 -0.17092504D-06  0.18744437D-06  0.12909241D-05  0.23778607D-05  0.38231113D-05
  0.49338352D-05  0.41877704D-05  0.14433630D-05 -0.37577944D-05 -0.13396572D-05
  0.47185156D-05 -0.75598619D-05 -0.55637529D-05 -0.30074028D-05  0.37678578D-05
  0.27729911D-05  0.14988986D-05 -0.88954740D-08 -0.65467094D-08 -0.35387252D-08
 -0.71699801D-05 -0.22129288D-05 -0.45972075D-05  0.79387341D-08  0.52715041D-05
  0.11850126D-04  0.65546838D-06 -0.57586351D-05 -0.60689583D-08 -0.28252468D-07
  0.19582064D-06  0.33214887D-06  0.37813975D-06  0.40009682D-05  0.36913277D-06
  0.67993644D-06  0.10931981D-05  0.14108036D-05  0.11974704D-05  0.41272186D-06
 -0.58290463D-06 -0.20780604D-06  0.73193059D-06  0.34316103D-05  0.25255266D-05
  0.13651354D-05  0.30614093D-05  0.22530736D-05  0.12178650D-05 -0.18568952D-07
 -0.13665999D-07 -0.73869498D-08 -0.12730756D-04 -0.29155241D-05 -0.52245695D-05
  0.10826940D-07  0.41144090D-05  0.52080106D-05 -0.98042041D-07 -0.87797988D-05
  0.23791749D-07 -0.75799867D-08  0.22144278D-06  0.37560887D-06  0.42761742D-06
 -0.24809936D-05  0.11474965D-05  0.21136695D-05  0.33983461D-05  0.43856635D-05
  0.37224899D-05  0.12829987D-05 -0.53518604D-05 -0.19079432D-05  0.67201221D-05
  0.63628034D-05  0.46827662D-05  0.25311988D-05  0.17791478D-04  0.13093809D-04
  0.70776611D-05  0.37387060D-08  0.27515366D-08  0.14873017D-08  0.24757394D-04
  0.12567596D-04  0.19774901D-04  0.26068414D-09  0.55653105D-05  0.34758535D-05
  0.14014470D-05 -0.25336440D-05 -0.97290172D-09  0.16930990D-09 -0.20957522D-06
 -0.38603408D-06 -0.62066347D-06 -0.80098408D-06 -0.67986410D-06 -0.23432294D-06
  0.95290451D-06  0.33971134D-06 -0.11965250D-05 -0.65343987D-06 -0.48090534D-06
 -0.25994614D-06  0.21075526D-05  0.15510736D-05  0.83840947D-06 -0.31961055D-08
 -0.23522045D-08 -0.12714487D-08  0.31207427D-05  0.17175201D-05  0.21474541D-05
  0.15052189D-08 -0.98416032D-06  0.50416594D-06 -0.16363655D-06  0.25645754D-05
 -0.49434545D-09  0.12670778D-08 -0.18981821D-07 -0.32196762D-07 -0.36654875D-07
  0.18762081D-05  0.15003473D-05  0.27630150D-05  0.44642795D-05  0.58427821D-05
  0.50048665D-05  0.17217321D-05 -0.47131618D-05 -0.23299555D-05  0.61462733D-05
  0.47593216D-05  0.37052079D-05  0.17593638D-05  0.41137472D-05  0.32026179D-05
  0.15207163D-05 -0.34938165D-08 -0.27199919D-08 -0.12915484D-08 -0.14512212D-04
 -0.34863764D-05 -0.38832201D-05 -0.16826885D-09  0.48795974D-05  0.42588212D-05
  0.73455176D-05 -0.53342094D-06  0.55702293D-09 -0.17351827D-08  0.21190155D-06
  0.35942514D-06  0.40919282D-06 -0.17933757D-05 -0.12198600D-04 -0.22464742D-04
 -0.36296902D-04 -0.47504842D-04 -0.40692155D-04 -0.13998573D-04 -0.31568445D-04
 -0.15605887D-04  0.41167330D-04  0.27603617D-04  0.21489856D-04  0.10204144D-04
 -0.26126227D-05 -0.20339685D-05 -0.96580019D-06 -0.18795320D-08 -0.14632457D-08
 -0.69480081D-09 -0.36006907D-04 -0.31455981D-04 -0.20810822D-05  0.39348293D-09
 -0.40892217D-04 -0.21065725D-04  0.33131303D-04 -0.36898049D-04  0.91743477D-08
 -0.32991058D-07  0.67389826D+00  0.12410400D+01  0.20051825D+01  0.26243528D+01
  0.22479934D+01  0.77333576D+00 -0.18123485D-01 -0.89593598D-02  0.23634217D-01
  0.47833876D-03  0.37239436D-03  0.17682601D-03  0.67413843D-03  0.52482754D-03
  0.24920668D-03  0.30420015D-06  0.23682467D-06  0.11245273D-06  0.10946414D-02
 -0.88875367D-05 -0.22269184D-04 -0.10622975D-07 -0.98527129D-02 -0.97332061D-02
 -0.95293393D-02  0.19898672D-03  0.29311170D-06 -0.30899781D-06  0.64710900D-04
  0.10976193D-03  0.12496008D-03 -0.75743028D-04 -0.32147310D-04 -0.59201958D-04
 -0.95654236D-04 -0.12519083D-03 -0.10723717D-03 -0.36890828D-04 -0.35028232D-04
 -0.17316236D-04  0.45679121D-04 -0.13192488D-04 -0.10270562D-04 -0.48768263D-05
  0.12670937D-04  0.98645265D-05  0.46840261D-05 -0.19514195D-07 -0.15192112D-07
 -0.72137523D-08 -0.55546315D-04  0.24952312D-04  0.34492362D-06 -0.91798183D-08
 -0.36743846D-04 -0.64901243D-05  0.45504725D-04  0.33981431D-04  0.12529255D-06
 -0.14280428D-07  0.25004125D-05  0.42411728D-05  0.48284253D-05  0.66332988D-05
  0.38106285D-05  0.70175909D-05  0.11338515D-04  0.14839679D-04  0.12711515D-04
  0.43729083D-05 -0.45282747D-05 -0.22385564D-05  0.59051684D-05 -0.30121103D-05
 -0.23449760D-05 -0.11134775D-05  0.81755069D-05  0.63647627D-05  0.30222145D-05
 -0.28725542D-08 -0.22363293D-08 -0.10618883D-08 -0.66472419D-05  0.77800627D-06
 -0.97959962D-05  0.38070822D-08  0.77477809D-06  0.73774454D-09  0.89582272D-05
 -0.69734433D-05  0.21678901D-07  0.15367534D-07 -0.11530978D-05 -0.19558721D-05
 -0.22266912D-05 -0.31126354D-05 -0.36911849D-04 -0.67976254D-04 -0.10983111D-03
 -0.14374531D-03 -0.12313074D-03 -0.42358401D-04 -0.34311651D-04 -0.16961994D-04
  0.44744652D-04 -0.99817747D-05 -0.77709710D-05 -0.36899319D-05  0.21057239D-04
  0.16393397D-04  0.77841646D-05 -0.13689040D-07 -0.10657136D-07 -0.50603852D-08
 -0.46627931D-04  0.22193028D-05 -0.24455616D-04  0.16521860D-07 -0.56348626D-05
 -0.46385034D-04  0.41554341D-04 -0.69987250D-05  0.62997398D-07  0.15650811D-07
  0.35617432D-05  0.65592477D-05  0.10597957D-04  0.13870448D-04  0.11881282D-04
  0.40872986D-05  0.15138632D-05  0.74837953D-06 -0.19741772D-05  0.19177868D-05
  0.14930277D-05  0.70894235D-06  0.45305445D-05  0.35271012D-05  0.16747924D-05
 -0.44909091D-08 -0.34962445D-08 -0.16601405D-08  0.14729043D-04  0.20455439D-05
  0.35941307D-06  0.55148889D-08 -0.52058334D-06 -0.31467691D-05  0.16893644D-05
 -0.14415557D-05  0.38030789D-09  0.53643956D-08 -0.49304278D-06 -0.83629387D-06
 -0.95209102D-06  0.12607614D-05
MO    2     MO 0.0        OCC NO =    1.0000000  ORB. ENERGY =  -14.509368
  0.41579759D-06  0.76589226D-06  0.12313974D-05  0.15891537D-05  0.13488515D-05
  0.46489710D-06 -0.44223352D-05 -0.15765666D-05  0.55529536D-05  0.54286231D-05
  0.39952472D-05  0.21595707D-05 -0.15179095D-04 -0.11171201D-04 -0.60384244D-05
 -0.41206947D-08 -0.30326648D-08 -0.16392613D-08  0.16602986D-04  0.64025072D-05
 -0.18478254D-04 -0.42209744D-08 -0.80375474D-06 -0.44162987D-06 -0.49634413D-06
  0.13146434D-05  0.13226100D-08  0.19251387D-08  0.60271861D-06  0.10223248D-05
  0.11638807D-05  0.14739309D-04  0.35677320D-06  0.65717031D-06  0.10565948D-05
  0.13635660D-05  0.11573758D-05  0.39890280D-06 -0.47924067D-06 -0.17084974D-06
  0.60176379D-06  0.10618004D-05  0.78144217D-06  0.42239680D-06 -0.70502808D-05
 -0.51887218D-05 -0.28046854D-05 -0.55044125D-09 -0.40510252D-09 -0.21897207D-09
 -0.10588863D-04 -0.35971472D-05  0.44101967D-05 -0.18418675D-09  0.30744846D-05
  0.77581758D-05 -0.48548733D-06  0.11133812D-04 -0.27777315D-08  0.83847445D-08
  0.11819716D-06  0.20048476D-06  0.22824481D-06 -0.21799383D-05  0.16267538D-05
  0.29964536D-05  0.48176815D-05  0.62173567D-05  0.52772055D-05  0.18188493D-05
 -0.55884150D-05 -0.19922751D-05  0.70171545D-05 -0.51809753D-05 -0.38129884D-05
 -0.20610535D-05  0.22175388D-06  0.16320190D-06  0.88216327D-07  0.11219673D-07
  0.82572259D-08  0.44633191D-08 -0.14646894D-04  0.12643773D-05  0.88901470D-05
 -0.52893427D-08  0.44236087D-05  0.75757908D-05  0.24097057D-05  0.48687918D-05
 -0.43365833D-08 -0.80136291D-08  0.48424002D-06  0.89196208D-06  0.14340917D-05
  0.18507367D-05  0.15708794D-05  0.54142156D-06 -0.16489580D-05 -0.58785505D-06
  0.20705321D-05 -0.41581022D-05 -0.30601952D-05 -0.16541424D-05 -0.34724342D-05
 -0.25555713D-05 -0.13813756D-05 -0.37916326D-09 -0.27904883D-09 -0.15083565D-09
 -0.14606092D-05  0.49391380D-06  0.10407733D-05 -0.78980658D-09  0.18803224D-05
 -0.16339511D-06  0.16803829D-05  0.10355114D-05 -0.22617238D-08  0.65660386D-08
  0.65236260D-07  0.11065304D-06  0.12597458D-06 -0.35081655D-06  0.10051804D-05
  0.18515255D-05  0.29768725D-05  0.38417397D-05  0.32608150D-05  0.11238772D-05
 -0.46591965D-07 -0.16610079D-07  0.58503710D-07 -0.72962892D-05 -0.53697740D-05
 -0.29025505D-05  0.13985224D-05  0.10292560D-05  0.55634881D-06  0.19815967D-08
  0.14583751D-08  0.78830269D-09  0.49010376D-05  0.56005863D-05  0.10287724D-04
 -0.22515268D-07  0.13285081D-04 -0.84207470D-06  0.57502187D-05 -0.81216204D-05
  0.43247793D-08  0.13940675D-07  0.75297953D-06  0.12771958D-05  0.14540423D-05
  0.19922613D-04  0.31875577D-05  0.58714283D-05  0.94400501D-05  0.12182656D-04
  0.10340469D-04  0.35639608D-05 -0.53954939D-04 -0.19234986D-04  0.67749110D-04
 -0.17440438D-03 -0.12835458D-03 -0.69380135D-04 -0.26482674D-03 -0.19490178D-03
 -0.10535122D-03 -0.11688178D-06 -0.86020266D-07 -0.46496960D-07 -0.70419691D-04
  0.44612278D-04  0.52793282D-04  0.25356036D-07  0.71381684D-04  0.16241231D-03
 -0.40763720D-04  0.19121057D-03  0.99886107D-07  0.15440980D-06  0.30754702D-05
  0.56649650D-05  0.91080996D-05  0.11754265D-04  0.99768557D-05  0.34386375D-05
 -0.53514538D-04 -0.19077983D-04  0.67196116D-04  0.34216111D-03  0.25181675D-03
  0.13611575D-03  0.27762944D-04  0.20432405D-04  0.11044429D-04  0.77431734D-07
  0.56986627D-07  0.30803263D-07 -0.81990554D-04 -0.31517861D-04  0.69204375D-05
 -0.21452481D-08  0.23333134D-03 -0.21690967D-04 -0.43536724D-04 -0.14970331D-04
  0.10119623D-06  0.87997176D-08  0.29242993D-05  0.49601651D-05  0.56469727D-05
  0.11264929D-04 -0.14462746D-04 -0.26634355D-04 -0.43033861D-04 -0.56322073D-04
 -0.48244903D-04 -0.16596806D-04 -0.31513681D-04 -0.15578815D-04  0.41095915D-04
  0.67471710D-05  0.52527804D-05  0.24942059D-05  0.32433324D-05  0.25249861D-05
  0.11989527D-05  0.89627264D-08  0.69776256D-08  0.33132235D-08 -0.32453816D-04
 -0.25450268D-04  0.39269092D-05 -0.80285342D-08 -0.44073433D-04 -0.20606225D-04
  0.30738546D-04  0.42106009D-04 -0.20264539D-07 -0.21583079D-07  0.14398445D-05
  0.24422488D-05  0.27804139D-05 -0.13795794D-04 -0.12082647D-04 -0.22251204D-04
 -0.35951883D-04 -0.47053286D-04 -0.40305357D-04 -0.13865510D-04 -0.33751470D-04
 -0.16685068D-04  0.44014139D-04 -0.28976828D-05 -0.22558924D-05 -0.10711775D-05
 -0.15375445D-04 -0.11970029D-04 -0.56837933D-05  0.41594228D-08  0.32381771D-08
  0.15376010D-08 -0.40720003D-04 -0.66463830D-05  0.23088035D-04  0.27466669D-08
 -0.41287977D-05 -0.58007886D-04  0.36676809D-04  0.20014778D-05 -0.15758885D-07
 -0.56831133D-07 -0.27188465D-05 -0.50069831D-05 -0.80899206D-05 -0.10587967D-04
 -0.90695426D-05 -0.31200277D-05 -0.39970115D-05 -0.19759260D-05  0.52123662D-05
 -0.96678600D-06 -0.75265834D-06 -0.35738880D-06 -0.81857442D-05 -0.63727326D-05
 -0.30259989D-05 -0.98604004D-08 -0.76764792D-08 -0.36450638D-08 -0.53852754D-05
 -0.12639434D-05  0.81515997D-05  0.88805014D-08  0.12703700D-05  0.30514342D-06
  0.84858977D-05  0.51987909D-05  0.10929937D-07 -0.93800495D-08 -0.77475423D-06
 -0.13141298D-05 -0.14960903D-05 -0.29799511D-05 -0.12154228D-06 -0.22383026D-06
 -0.36164873D-06 -0.47332044D-06 -0.40544138D-06 -0.13947653D-06 -0.22373329D-06
 -0.11060274D-06  0.29176295D-06 -0.45528410D-06 -0.35444594D-06 -0.16830347D-06
  0.47428992D-06  0.36924228D-06  0.17532929D-06 -0.86191631D-08 -0.67101562D-08
 -0.31862195D-08  0.26870541D-05  0.36433478D-07 -0.18258736D-05  0.30971967D-08
 -0.24183914D-05 -0.18334795D-05  0.15189518D-05  0.83662000D-06  0.27967357D-08
  0.18515422D-09  0.38872885D-06  0.65935770D-06  0.75065544D-06 -0.12282963D-05
  0.75789064D-05  0.13957189D-04  0.22551016D-04  0.29514432D-04  0.25281756D-04
  0.86972170D-05 -0.60243907D-05 -0.29781626D-05  0.78562022D-05 -0.48623720D-05
 -0.37854343D-05 -0.17974581D-05  0.66653152D-05  0.51890543D-05  0.24639465D-05
 -0.20897913D-07 -0.16269359D-07 -0.77252671D-08 -0.15433972D-04  0.91523261D-05
 -0.59826534D-05  0.11589287D-07 -0.17747903D-05  0.85645757D-05  0.96619816D-05
 -0.96188949D-06 -0.33223322D-08  0.67556080D-08 -0.93315358D-06 -0.15828051D-05
 -0.18019677D-05 -0.18202521D-05 -0.83895337D-04 -0.15450027D-03 -0.24963035D-03
 -0.32671247D-03 -0.27985851D-03 -0.96274569D-04 -0.31708313D-04 -0.15675031D-04
  0.41349728D-04 -0.22419457D-04 -0.17453905D-04 -0.82877315D-05 -0.12016650D-04
 -0.93551539D-05 -0.44421580D-05 -0.76342176D-08 -0.59433603D-08 -0.28221177D-08
 -0.51358272D-04  0.26844930D-04  0.28119792D-05  0.25635600D-08 -0.32242216D-04
 -0.21719430D-05  0.43980293D-04 -0.24381514D-04 -0.28693226D-07 -0.25321004D-07
  0.67389430D+00  0.12410327D+01  0.20051707D+01  0.26243374D+01  0.22479801D+01
  0.77333121D+00 -0.18133716D-01 -0.89644179D-02  0.23647560D-01  0.44983014D-03
  0.35019995D-03  0.16628732D-03 -0.64433916D-03 -0.50162833D-03 -0.23819087D-03
 -0.14799039D-06 -0.11521289D-06 -0.54707153D-07  0.10985058D-02  0.27979328D-05
  0.16886208D-04  0.64749523D-08 -0.98782437D-02 -0.97393291D-02 -0.95376592D-02
 -0.19239111D-03 -0.25570884D-06 -0.21850867D-06  0.65796953D-04  0.11160409D-03
  0.12705731D-03 -0.86542808D-04
MO    3     MO 0.0        OCC NO =    1.0000000  ORB. ENERGY =  -14.504039
 -0.16658150D-06 -0.30684036D-06 -0.49333624D-06 -0.63666462D-06 -0.54039204D-06
 -0.18625230D-06  0.58855891D-06  0.20982180D-06 -0.73903044D-06 -0.18067819D-05
 -0.13297185D-05 -0.71875930D-06  0.64156976D-06  0.47216942D-06  0.25522407D-06
 -0.25132654D-08 -0.18496618D-08 -0.99980682D-09  0.92728603D-06 -0.22622058D-06
 -0.18777993D-05 -0.39480708D-09 -0.68104822D-06  0.18682572D-06 -0.62832034D-06
  0.51672817D-06 -0.26620006D-08 -0.11705002D-08 -0.22239102D-08 -0.37721727D-08
 -0.42944853D-08  0.13020513D-05 -0.15200518D-06 -0.27999101D-06 -0.45016801D-06
 -0.58095477D-06 -0.49310629D-06 -0.16995473D-06  0.83428536D-06  0.29742351D-06
 -0.10475795D-05 -0.10124300D-05 -0.74510758D-06 -0.40275668D-06 -0.23911405D-05
 -0.17597828D-05 -0.95122409D-06 -0.13401660D-08 -0.98630801D-09 -0.53313395D-09
  0.28542290D-05 -0.16372552D-06 -0.24936208D-05 -0.11027525D-08 -0.11837741D-05
  0.13413589D-05 -0.34606355D-08 -0.12121867D-05  0.32601431D-08  0.32788585D-08
 -0.82111178D-07 -0.13927610D-06 -0.15856092D-06  0.15114568D-05  0.15807773D-05
  0.29117656D-05  0.46815207D-05  0.60416372D-05  0.51280572D-05  0.17674436D-05
 -0.95428598D-05 -0.34020384D-05  0.11982596D-04  0.65996503D-05  0.48570759D-05
  0.26254193D-05 -0.14224541D-04 -0.10468688D-04 -0.56586915D-05  0.30393429D-08
  0.22368335D-08  0.12090867D-08  0.16638327D-04  0.65165403D-05 -0.69546804D-05
  0.10218622D-08  0.14254145D-05 -0.10421460D-05  0.18926289D-05  0.31933813D-05
 -0.76964422D-08  0.21580544D-07  0.28064541D-05  0.51694418D-05  0.83114001D-05
  0.10726101D-04  0.91041648D-05  0.31378545D-05 -0.54128618D-04 -0.19296903D-04
  0.67967192D-04 -0.19268472D-03 -0.14180816D-03 -0.76652268D-04 -0.27127250D-03
 -0.19964560D-03 -0.10791542D-03  0.37605298D-06  0.27675980D-06  0.14959834D-06
 -0.82468051D-04  0.11555748D-04  0.31818141D-04 -0.40089907D-07  0.36510856D-04
  0.16764798D-03 -0.39865678D-04  0.20588781D-03 -0.29166651D-06 -0.50983992D-06
  0.32471964D-05  0.55078597D-05  0.62705036D-05  0.94560399D-05  0.29892205D-05
  0.55060946D-05  0.88526686D-05  0.11424624D-04  0.96970609D-05  0.33422030D-05
 -0.57899133D-04 -0.20641095D-04  0.72701680D-04  0.32967860D-03  0.24263013D-03
  0.13115006D-03  0.35192160D-04  0.25900008D-04  0.13999859D-04 -0.13204436D-06
 -0.97179314D-07 -0.52528815D-07 -0.91249539D-04 -0.44361684D-04  0.55771052D-05
  0.63433500D-09  0.20711283D-03 -0.23287752D-04 -0.40979248D-04 -0.74060728D-05
 -0.15685488D-06 -0.29812854D-07  0.72097652D-06  0.12229126D-05  0.13922428D-05
  0.12397623D-04  0.16588674D-06  0.30556062D-06  0.49127868D-06  0.63400929D-06
  0.53813822D-06  0.18547550D-06  0.11093497D-05  0.39548421D-06 -0.13929671D-05
 -0.43597925D-05 -0.32086311D-05 -0.17343772D-05 -0.41711178D-05 -0.30697742D-05
 -0.16593202D-05  0.68623110D-08  0.50503836D-08  0.27299088D-08 -0.35168169D-05
 -0.90810018D-06 -0.18550439D-05 -0.66364605D-08  0.99845319D-05  0.34361527D-05
 -0.11790098D-05  0.45709396D-05 -0.30120037D-08  0.19551262D-08 -0.10398587D-05
 -0.19154025D-05 -0.30795736D-05 -0.39742784D-05 -0.33733120D-05 -0.11626506D-05
  0.32909615D-05  0.11732309D-05 -0.41323319D-05 -0.89405076D-05 -0.65798523D-05
 -0.35566401D-05  0.13663669D-05  0.10055908D-05  0.54355697D-06 -0.13076690D-08
 -0.96239155D-09 -0.52020626D-09 -0.39641619D-05 -0.63984319D-06 -0.20757829D-05