 Generated by Multiwfn
GAUSSIAN             47 MOL ORBITALS    432 PRIMITIVES       24 NUCLEI
  B    1    (CENTRE  1)  -5.48837998  1.75614678  0.00030636  CHARGE =  5.0
  H    2    (CENTRE  2)  -6.59895937  3.71309242  0.00071169  CHARGE =  1.0
  B    3    (CENTRE  3)  -1.37061183  4.06661482  0.00138710  CHARGE =  5.0
  H    4    (CENTRE  4)  -2.44915673  6.04075428  0.00287894  CHARGE =  1.0
  B    5    (CENTRE  5)   2.72512198  1.66610233 -0.00053723  CHARGE =  5.0
  B    6    (CENTRE  6)   6.87864534 -0.63796483 -0.00165190  CHARGE =  5.0
  H    7    (CENTRE  7)   9.12974662 -0.61581430 -0.00239453  CHARGE =  1.0
  B    8    (CENTRE  8)   2.78996207 -3.03981580  0.00233580  CHARGE =  5.0
  H    9    (CENTRE  9)   1.77764270 -5.05366793  0.00526030  CHARGE =  1.0
  B   10    (CENTRE 10)  -1.40654608 -0.68703596  0.00025251  CHARGE =  5.0
  B   11    (CENTRE 11)  -5.58072038 -2.97325471 -0.00134426  CHARGE =  5.0
  H   12    (CENTRE 12)  -6.73986185 -4.90448201 -0.00265028  CHARGE =  1.0
  N   13    (CENTRE 13)  -6.82834287 -0.57597241 -0.00086285  CHARGE =  7.0
  H   14    (CENTRE 14)  -8.72924779 -0.52915830 -0.00136896  CHARGE =  1.0
  N   15    (CENTRE 15)  -2.75693402  1.71684484  0.00068894  CHARGE =  7.0
  N   16    (CENTRE 16)   1.30994682  3.98294291  0.00079127  CHARGE =  7.0
  H   17    (CENTRE 17)   2.24858282  5.63836076  0.00148107  CHARGE =  1.0
  N   18    (CENTRE 18)   5.44308899  1.63214801 -0.00245625  CHARGE =  7.0
  H   19    (CENTRE 19)   6.38153722  3.28763235 -0.00467996  CHARGE =  1.0
  N   20    (CENTRE 20)   5.47989954 -2.95095912  0.00134176  CHARGE =  7.0
  H   21    (CENTRE 21)   6.43337987 -4.59613334  0.00278691  CHARGE =  1.0
  N   22    (CENTRE 22)   1.35828163 -0.72279785  0.00060422  CHARGE =  7.0
  N   23    (CENTRE 23)  -2.89276606 -2.95503220 -0.00078949  CHARGE =  7.0
  H   24    (CENTRE 24)  -1.98323723 -4.62476647 -0.00099041  CHARGE =  1.0
CENTRE ASSIGNMENTS    1  1  1  1  1  1  1  1  1  1  1  1  1  1  1  1  1  1  1  1
CENTRE ASSIGNMENTS    1  1  1  1  1  1  1  1  2  2  2  2  3  3  3  3  3  3  3  3
CENTRE ASSIGNMENTS    3  3  3  3  3  3  3  3  3  3  3  3  3  3  3  3  3  3  3  3
CENTRE ASSIGNMENTS    4  4  4  4  5  5  5  5  5  5  5  5  5  5  5  5  5  5  5  5
CENTRE ASSIGNMENTS    5  5  5  5  5  5  5  5  5  5  5  5  6  6  6  6  6  6  6  6
CENTRE ASSIGNMENTS    6  6  6  6  6  6  6  6  6  6  6  6  6  6  6  6  6  6  6  6
CENTRE ASSIGNMENTS    7  7  7  7  8  8  8  8  8  8  8  8  8  8  8  8  8  8  8  8
CENTRE ASSIGNMENTS    8  8  8  8  8  8  8  8  8  8  8  8  9  9  9  9 10 10 10 10
CENTRE ASSIGNMENTS   10 10 10 10 10 10 10 10 10 10 10 10 10 10 10 10 10 10 10 10
CENTRE ASSIGNMENTS   10 10 10 10 11 11 11 11 11 11 11 11 11 11 11 11 11 11 11 11
CENTRE ASSIGNMENTS   11 11 11 11 11 11 11 11 11 11 11 11 12 12 12 12 13 13 13 13
CENTRE ASSIGNMENTS   13 13 13 13 13 13 13 13 13 13 13 13 13 13 13 13 13 13 13 13
CENTRE ASSIGNMENTS   13 13 13 13 14 14 14 14 15 15 15 15 15 15 15 15 15 15 15 15
CENTRE ASSIGNMENTS   15 15 15 15 15 15 15 15 15 15 15 15 15 15 15 15 16 16 16 16
CENTRE ASSIGNMENTS   16 16 16 16 16 16 16 16 16 16 16 16 16 16 16 16 16 16 16 16
CENTRE ASSIGNMENTS   16 16 16 16 17 17 17 17 18 18 18 18 18 18 18 18 18 18 18 18
CENTRE ASSIGNMENTS   18 18 18 18 18 18 18 18 18 18 18 18 18 18 18 18 19 19 19 19
CENTRE ASSIGNMENTS   20 20 20 20 20 20 20 20 20 20 20 20 20 20 20 20 20 20 20 20
CENTRE ASSIGNMENTS   20 20 20 20 20 20 20 20 21 21 21 21 22 22 22 22 22 22 22 22
CENTRE ASSIGNMENTS   22 22 22 22 22 22 22 22 22 22 22 22 22 22 22 22 22 22 22 22
CENTRE ASSIGNMENTS   23 23 23 23 23 23 23 23 23 23 23 23 23 23 23 23 23 23 23 23
CENTRE ASSIGNMENTS   23 23 23 23 23 23 23 23 24 24 24 24
TYPE ASSIGNMENTS      1  1  1  1  1  1  1  1  1  2  2  2  3  3  3  4  4  4  1  2
TYPE ASSIGNMENTS      3  4  5  6  7  8  9 10  1  1  1  1  1  1  1  1  1  1  1  1
TYPE ASSIGNMENTS      1  2  2  2  3  3  3  4  4  4  1  2  3  4  5  6  7  8  9 10
TYPE ASSIGNMENTS      1  1  1  1  1  1  1  1  1  1  1  1  1  2  2  2  3  3  3  4
TYPE ASSIGNMENTS      4  4  1  2  3  4  5  6  7  8  9 10  1  1  1  1  1  1  1  1
TYPE ASSIGNMENTS      1  2  2  2  3  3  3  4  4  4  1  2  3  4  5  6  7  8  9 10
TYPE ASSIGNMENTS      1  1  1  1  1  1  1  1  1  1  1  1  1  2  2  2  3  3  3  4
TYPE ASSIGNMENTS      4  4  1  2  3  4  5  6  7  8  9 10  1  1  1  1  1  1  1  1
TYPE ASSIGNMENTS      1  1  1  1  1  2  2  2  3  3  3  4  4  4  1  2  3  4  5  6
TYPE ASSIGNMENTS      7  8  9 10  1  1  1  1  1  1  1  1  1  2  2  2  3  3  3  4
TYPE ASSIGNMENTS      4  4  1  2  3  4  5  6  7  8  9 10  1  1  1  1  1  1  1  1
TYPE ASSIGNMENTS      1  1  1  1  1  2  2  2  3  3  3  4  4  4  1  2  3  4  5  6
TYPE ASSIGNMENTS      7  8  9 10  1  1  1  1  1  1  1  1  1  1  1  1  1  2  2  2
TYPE ASSIGNMENTS      3  3  3  4  4  4  1  2  3  4  5  6  7  8  9 10  1  1  1  1
TYPE ASSIGNMENTS      1  1  1  1  1  2  2  2  3  3  3  4  4  4  1  2  3  4  5  6
TYPE ASSIGNMENTS      7  8  9 10  1  1  1  1  1  1  1  1  1  1  1  1  1  2  2  2
TYPE ASSIGNMENTS      3  3  3  4  4  4  1  2  3  4  5  6  7  8  9 10  1  1  1  1
TYPE ASSIGNMENTS      1  1  1  1  1  1  1  1  1  2  2  2  3  3  3  4  4  4  1  2
TYPE ASSIGNMENTS      3  4  5  6  7  8  9 10  1  1  1  1  1  1  1  1  1  1  1  1
TYPE ASSIGNMENTS      1  2  2  2  3  3  3  4  4  4  1  2  3  4  5  6  7  8  9 10
TYPE ASSIGNMENTS      1  1  1  1  1  1  1  1  1  2  2  2  3  3  3  4  4  4  1  2
TYPE ASSIGNMENTS      3  4  5  6  7  8  9 10  1  1  1  1
EXPONENTS  0.2068882D+04 0.3106496D+03 0.7068303D+02 0.1986108D+02 0.6299305D+01
EXPONENTS  0.2127027D+01 0.4727971D+01 0.1190338D+01 0.3594117D+00 0.4727971D+01
EXPONENTS  0.1190338D+01 0.3594117D+00 0.4727971D+01 0.1190338D+01 0.3594117D+00
EXPONENTS  0.4727971D+01 0.1190338D+01 0.3594117D+00 0.1267512D+00 0.1267512D+00
EXPONENTS  0.1267512D+00 0.1267512D+00 0.6000000D+00 0.6000000D+00 0.6000000D+00
EXPONENTS  0.6000000D+00 0.6000000D+00 0.6000000D+00 0.1873114D+02 0.2825394D+01
EXPONENTS  0.6401217D+00 0.1612778D+00 0.2068882D+04 0.3106496D+03 0.7068303D+02
EXPONENTS  0.1986108D+02 0.6299305D+01 0.2127027D+01 0.4727971D+01 0.1190338D+01
EXPONENTS  0.3594117D+00 0.4727971D+01 0.1190338D+01 0.3594117D+00 0.4727971D+01
EXPONENTS  0.1190338D+01 0.3594117D+00 0.4727971D+01 0.1190338D+01 0.3594117D+00
EXPONENTS  0.1267512D+00 0.1267512D+00 0.1267512D+00 0.1267512D+00 0.6000000D+00
EXPONENTS  0.6000000D+00 0.6000000D+00 0.6000000D+00 0.6000000D+00 0.6000000D+00
EXPONENTS  0.1873114D+02 0.2825394D+01 0.6401217D+00 0.1612778D+00 0.2068882D+04
EXPONENTS  0.3106496D+03 0.7068303D+02 0.1986108D+02 0.6299305D+01 0.2127027D+01
EXPONENTS  0.4727971D+01 0.1190338D+01 0.3594117D+00 0.4727971D+01 0.1190338D+01
EXPONENTS  0.3594117D+00 0.4727971D+01 0.1190338D+01 0.3594117D+00 0.4727971D+01
EXPONENTS  0.1190338D+01 0.3594117D+00 0.1267512D+00 0.1267512D+00 0.1267512D+00
EXPONENTS  0.1267512D+00 0.6000000D+00 0.6000000D+00 0.6000000D+00 0.6000000D+00
EXPONENTS  0.6000000D+00 0.6000000D+00 0.2068882D+04 0.3106496D+03 0.7068303D+02
EXPONENTS  0.1986108D+02 0.6299305D+01 0.2127027D+01 0.4727971D+01 0.1190338D+01
EXPONENTS  0.3594117D+00 0.4727971D+01 0.1190338D+01 0.3594117D+00 0.4727971D+01
EXPONENTS  0.1190338D+01 0.3594117D+00 0.4727971D+01 0.1190338D+01 0.3594117D+00
EXPONENTS  0.1267512D+00 0.1267512D+00 0.1267512D+00 0.1267512D+00 0.6000000D+00
EXPONENTS  0.6000000D+00 0.6000000D+00 0.6000000D+00 0.6000000D+00 0.6000000D+00
EXPONENTS  0.1873114D+02 0.2825394D+01 0.6401217D+00 0.1612778D+00 0.2068882D+04
EXPONENTS  0.3106496D+03 0.7068303D+02 0.1986108D+02 0.6299305D+01 0.2127027D+01
EXPONENTS  0.4727971D+01 0.1190338D+01 0.3594117D+00 0.4727971D+01 0.1190338D+01
EXPONENTS  0.3594117D+00 0.4727971D+01 0.1190338D+01 0.3594117D+00 0.4727971D+01
EXPONENTS  0.1190338D+01 0.3594117D+00 0.1267512D+00 0.1267512D+00 0.1267512D+00
EXPONENTS  0.1267512D+00 0.6000000D+00 0.6000000D+00 0.6000000D+00 0.6000000D+00
EXPONENTS  0.6000000D+00 0.6000000D+00 0.1873114D+02 0.2825394D+01 0.6401217D+00
EXPONENTS  0.1612778D+00 0.2068882D+04 0.3106496D+03 0.7068303D+02 0.1986108D+02
EXPONENTS  0.6299305D+01 0.2127027D+01 0.4727971D+01 0.1190338D+01 0.3594117D+00
EXPONENTS  0.4727971D+01 0.1190338D+01 0.3594117D+00 0.4727971D+01 0.1190338D+01
EXPONENTS  0.3594117D+00 0.4727971D+01 0.1190338D+01 0.3594117D+00 0.1267512D+00
EXPONENTS  0.1267512D+00 0.1267512D+00 0.1267512D+00 0.6000000D+00 0.6000000D+00
EXPONENTS  0.6000000D+00 0.6000000D+00 0.6000000D+00 0.6000000D+00 0.2068882D+04
EXPONENTS  0.3106496D+03 0.7068303D+02 0.1986108D+02 0.6299305D+01 0.2127027D+01
EXPONENTS  0.4727971D+01 0.1190338D+01 0.3594117D+00 0.4727971D+01 0.1190338D+01
EXPONENTS  0.3594117D+00 0.4727971D+01 0.1190338D+01 0.3594117D+00 0.4727971D+01
EXPONENTS  0.1190338D+01 0.3594117D+00 0.1267512D+00 0.1267512D+00 0.1267512D+00
EXPONENTS  0.1267512D+00 0.6000000D+00 0.6000000D+00 0.6000000D+00 0.6000000D+00
EXPONENTS  0.6000000D+00 0.6000000D+00 0.1873114D+02 0.2825394D+01 0.6401217D+00
EXPONENTS  0.1612778D+00 0.4173511D+04 0.6274579D+03 0.1429021D+03 0.4023433D+02
EXPONENTS  0.1282021D+02 0.4390437D+01 0.1162636D+02 0.2716280D+01 0.7722184D+00
EXPONENTS  0.1162636D+02 0.2716280D+01 0.7722184D+00 0.1162636D+02 0.2716280D+01
EXPONENTS  0.7722184D+00 0.1162636D+02 0.2716280D+01 0.7722184D+00 0.2120315D+00
EXPONENTS  0.2120315D+00 0.2120315D+00 0.2120315D+00 0.8000000D+00 0.8000000D+00
EXPONENTS  0.8000000D+00 0.8000000D+00 0.8000000D+00 0.8000000D+00 0.1873114D+02
EXPONENTS  0.2825394D+01 0.6401217D+00 0.1612778D+00 0.4173511D+04 0.6274579D+03
EXPONENTS  0.1429021D+03 0.4023433D+02 0.1282021D+02 0.4390437D+01 0.1162636D+02
EXPONENTS  0.2716280D+01 0.7722184D+00 0.1162636D+02 0.2716280D+01 0.7722184D+00
EXPONENTS  0.1162636D+02 0.2716280D+01 0.7722184D+00 0.1162636D+02 0.2716280D+01
EXPONENTS  0.7722184D+00 0.2120315D+00 0.2120315D+00 0.2120315D+00 0.2120315D+00
EXPONENTS  0.8000000D+00 0.8000000D+00 0.8000000D+00 0.8000000D+00 0.8000000D+00
EXPONENTS  0.8000000D+00 0.4173511D+04 0.6274579D+03 0.1429021D+03 0.4023433D+02
EXPONENTS  0.1282021D+02 0.4390437D+01 0.1162636D+02 0.2716280D+01 0.7722184D+00
EXPONENTS  0.1162636D+02 0.2716280D+01 0.7722184D+00 0.1162636D+02 0.2716280D+01
EXPONENTS  0.7722184D+00 0.1162636D+02 0.2716280D+01 0.7722184D+00 0.2120315D+00
EXPONENTS  0.2120315D+00 0.2120315D+00 0.2120315D+00 0.8000000D+00 0.8000000D+00
EXPONENTS  0.8000000D+00 0.8000000D+00 0.8000000D+00 0.8000000D+00 0.1873114D+02
EXPONENTS  0.2825394D+01 0.6401217D+00 0.1612778D+00 0.4173511D+04 0.6274579D+03
EXPONENTS  0.1429021D+03 0.4023433D+02 0.1282021D+02 0.4390437D+01 0.1162636D+02
EXPONENTS  0.2716280D+01 0.7722184D+00 0.1162636D+02 0.2716280D+01 0.7722184D+00
EXPONENTS  0.1162636D+02 0.2716280D+01 0.7722184D+00 0.1162636D+02 0.2716280D+01
EXPONENTS  0.7722184D+00 0.2120315D+00 0.2120315D+00 0.2120315D+00 0.2120315D+00
EXPONENTS  0.8000000D+00 0.8000000D+00 0.8000000D+00 0.8000000D+00 0.8000000D+00
EXPONENTS  0.8000000D+00 0.1873114D+02 0.2825394D+01 0.6401217D+00 0.1612778D+00
EXPONENTS  0.4173511D+04 0.6274579D+03 0.1429021D+03 0.4023433D+02 0.1282021D+02
EXPONENTS  0.4390437D+01 0.1162636D+02 0.2716280D+01 0.7722184D+00 0.1162636D+02
EXPONENTS  0.2716280D+01 0.7722184D+00 0.1162636D+02 0.2716280D+01 0.7722184D+00
EXPONENTS  0.1162636D+02 0.2716280D+01 0.7722184D+00 0.2120315D+00 0.2120315D+00
EXPONENTS  0.2120315D+00 0.2120315D+00 0.8000000D+00 0.8000000D+00 0.8000000D+00
EXPONENTS  0.8000000D+00 0.8000000D+00 0.8000000D+00 0.1873114D+02 0.2825394D+01
EXPONENTS  0.6401217D+00 0.1612778D+00 0.4173511D+04 0.6274579D+03 0.1429021D+03
EXPONENTS  0.4023433D+02 0.1282021D+02 0.4390437D+01 0.1162636D+02 0.2716280D+01
EXPONENTS  0.7722184D+00 0.1162636D+02 0.2716280D+01 0.7722184D+00 0.1162636D+02
EXPONENTS  0.2716280D+01 0.7722184D+00 0.1162636D+02 0.2716280D+01 0.7722184D+00
EXPONENTS  0.2120315D+00 0.2120315D+00 0.2120315D+00 0.2120315D+00 0.8000000D+00
EXPONENTS  0.8000000D+00 0.8000000D+00 0.8000000D+00 0.8000000D+00 0.8000000D+00
EXPONENTS  0.4173511D+04 0.6274579D+03 0.1429021D+03 0.4023433D+02 0.1282021D+02
EXPONENTS  0.4390437D+01 0.1162636D+02 0.2716280D+01 0.7722184D+00 0.1162636D+02
EXPONENTS  0.2716280D+01 0.7722184D+00 0.1162636D+02 0.2716280D+01 0.7722184D+00
EXPONENTS  0.1162636D+02 0.2716280D+01 0.7722184D+00 0.2120315D+00 0.2120315D+00
EXPONENTS  0.2120315D+00 0.2120315D+00 0.8000000D+00 0.8000000D+00 0.8000000D+00
EXPONENTS  0.8000000D+00 0.8000000D+00 0.8000000D+00 0.1873114D+02 0.2825394D+01
EXPONENTS  0.6401217D+00 0.1612778D+00
MO    1     MO 0.0        OCC NO =    2.0000000  ORB. ENERGY =  -14.317600
 -0.12958478D-06 -0.23869301D-06 -0.38376931D-06 -0.49526535D-06 -0.42037431D-06
 -0.14488681D-06  0.42544133D-06  0.15167023D-06 -0.53421006D-06 -0.16481955D-05
 -0.12130053D-05 -0.65567175D-06  0.88214733D-06  0.64922479D-06  0.35092868D-06
 -0.19674135D-08 -0.14479368D-08 -0.78266044D-09  0.14126151D-05 -0.94062429D-07
 -0.22243442D-05 -0.58650065D-09 -0.50914383D-06  0.24953468D-06 -0.66808896D-06
  0.10351203D-05 -0.21137492D-08 -0.66731283D-09  0.25045048D-07  0.42481141D-07
  0.48363278D-07  0.14696842D-05 -0.14634159D-06 -0.26955877D-06 -0.43339511D-06
 -0.55930887D-06 -0.47473355D-06 -0.16362235D-06  0.84726510D-06  0.30205080D-06
 -0.10638777D-05 -0.56278290D-06 -0.41418548D-06 -0.22388172D-06 -0.23736794D-05
 -0.17469321D-05 -0.94427785D-06 -0.19122312D-08 -0.14073249D-08 -0.76070828D-09
  0.23854728D-05 -0.86266717D-06 -0.25365158D-05 -0.88802313D-09 -0.11951087D-05
  0.12616420D-05  0.15460065D-06 -0.15564819D-05  0.22970932D-08  0.26428721D-08
 -0.86860988D-07 -0.14733268D-06 -0.16773304D-06  0.13444526D-05  0.22886054D-05
  0.42155731D-05  0.67777752D-05  0.87469140D-05  0.74242584D-05  0.25588556D-05
 -0.11557123D-04 -0.41201253D-05  0.14511829D-04  0.64881873D-05  0.47750437D-05
  0.25810780D-05 -0.15855272D-04 -0.11668840D-04 -0.63074155D-05  0.59997628D-08
  0.44155830D-08  0.23867769D-08  0.19115330D-04  0.39201150D-05 -0.43806395D-05
  0.16425448D-08  0.14976576D-05  0.22795747D-05  0.36781721D-05  0.19042027D-06
 -0.55728931D-08  0.26297370D-07  0.22573346D-05  0.41579728D-05  0.66851658D-05
  0.86273989D-05  0.73228157D-05  0.25238922D-05 -0.50337272D-04 -0.17945284D-04
  0.63206546D-04 -0.17950686D-03 -0.13210979D-03 -0.71409959D-04 -0.25815811D-03
 -0.18999393D-03 -0.10269836D-03  0.35623382D-06  0.26217370D-06  0.14171404D-06
 -0.76351589D-04  0.10343591D-04  0.29359028D-04 -0.36628691D-07  0.31614165D-04
  0.15375561D-03 -0.37332440D-04  0.19351966D-03 -0.27358000D-06 -0.46943946D-06
  0.31205047D-05  0.52929665D-05  0.60258553D-05  0.88076582D-05  0.26342676D-05
  0.48522773D-05  0.78014647D-05  0.10068015D-04  0.85455903D-05  0.29453355D-05
 -0.52504626D-04 -0.18717948D-04  0.65928009D-04  0.31317299D-03  0.23048267D-03
  0.12458393D-03  0.32297166D-04  0.23769409D-04  0.12848196D-04 -0.12395110D-06
 -0.91223001D-07 -0.49309219D-07 -0.86860705D-04 -0.40193452D-04  0.63147500D-05
 -0.56078512D-09  0.19996372D-03 -0.23845708D-04 -0.37561974D-04 -0.66993427D-05
 -0.15045986D-06 -0.19617410D-07  0.10872991D-05  0.18442651D-05  0.20996306D-05
  0.12736086D-04 -0.16825939D-06 -0.30993100D-06 -0.49830536D-06 -0.64307741D-06
 -0.54583513D-06 -0.18812832D-06  0.17865568D-05  0.63690917D-06 -0.22433096D-05
 -0.62431566D-05 -0.45947110D-05 -0.24836018D-05 -0.41248831D-05 -0.30357473D-05
 -0.16409275D-05  0.47294670D-08  0.34806966D-08  0.18814382D-08 -0.49173398D-05
 -0.95754504D-06 -0.45412196D-05 -0.61600484D-08  0.72979416D-05  0.18575813D-05
 -0.17136087D-05  0.49849677D-05 -0.27280773D-08  0.14201036D-08 -0.93429315D-06
 -0.17209525D-05 -0.27669379D-05 -0.35708130D-05 -0.30308562D-05 -0.10446193D-05
  0.29184378D-05  0.10404258D-05 -0.36645684D-05 -0.85028246D-05 -0.62577353D-05
 -0.33825246D-05  0.13979529D-05  0.10288368D-05  0.55612226D-06 -0.89871770D-09
 -0.66141991D-09 -0.35752057D-09 -0.42311852D-05 -0.81232411D-06 -0.19736460D-05
  0.11316493D-08 -0.53201318D-05 -0.27260899D-05 -0.13258022D-05  0.37671220D-05
  0.65236962D-08  0.20720573D-08  0.10195616D-06  0.17293695D-06  0.19688261D-06
 -0.11319161D-05 -0.20402686D-06 -0.37573251D-06 -0.60708137D-06 -0.79453900D-06
 -0.68059386D-06 -0.23413217D-06  0.16528366D-06  0.81708115D-07 -0.21554077D-06
  0.15761434D-05  0.12270528D-05  0.58264808D-06 -0.23504846D-06 -0.18298898D-06
 -0.86889642D-07  0.18690443D-08  0.14550808D-08  0.69092385D-09  0.48031873D-06
 -0.37747125D-06 -0.25676836D-05 -0.21755962D-08 -0.33992839D-06  0.17269374D-05
 -0.13596253D-07 -0.29392578D-05 -0.14792515D-08  0.61131890D-09 -0.88838301D-07
 -0.15068657D-06 -0.17155134D-06 -0.36483641D-06 -0.38934361D-06 -0.71700878D-06
 -0.11584909D-05 -0.15162155D-05 -0.12987744D-05 -0.44679346D-06 -0.60909220D-07
 -0.30110524D-07  0.79429633D-07  0.24214538D-05  0.18851404D-05  0.89513136D-06
  0.60224460D-06  0.46885704D-06  0.22262991D-06 -0.82457026D-08 -0.64194112D-08
 -0.30481635D-08  0.13054561D-05 -0.68296596D-06 -0.23753237D-05  0.34094293D-08
 -0.38423336D-06 -0.35801893D-06  0.10326083D-05 -0.22169153D-05 -0.18841153D-09
 -0.24894057D-08  0.13708639D-04  0.25245604D-04  0.40790018D-04  0.53385365D-04
  0.45729349D-04  0.15731426D-04 -0.45927622D-05 -0.22704359D-05  0.59892643D-05
  0.52257661D-05  0.40683424D-05  0.19317929D-05 -0.78484934D-05 -0.61101774D-05
 -0.29013284D-05 -0.61835765D-08 -0.48140130D-08 -0.22858637D-08 -0.80165422D-05
 -0.39783708D-05  0.51901595D-05 -0.24754703D-09  0.75521529D-05  0.34522703D-05
  0.87662661D-05  0.39227794D-05 -0.78882194D-08  0.97936394D-08 -0.24364562D-06
 -0.41326908D-06 -0.47049225D-06  0.14548217D-05 -0.38767239D-02 -0.71393111D-02
 -0.11535182D-01 -0.15097073D-01 -0.12931996D-01 -0.44487565D-02  0.73189522D-04
  0.36181302D-04 -0.95443956D-04 -0.10462040D-04 -0.81448650D-05 -0.38674700D-05
 -0.12865949D-04 -0.10016346D-04 -0.47561156D-05  0.26267688D-07  0.20449815D-07
  0.97102954D-08 -0.29490781D-04  0.97035236D-05  0.25232861D-04 -0.29568632D-07
  0.47217857D-04 -0.25203816D-05  0.85049407D-04 -0.65196388D-06  0.60591627D-07
  0.15216143D-06  0.43429964D-06  0.73665439D-06  0.83865499D-06 -0.14606615D-04
  0.67394267D+00  0.12411217D+01  0.20053146D+01  0.26245257D+01  0.22481415D+01
  0.77338673D+00 -0.17982041D-01 -0.88894370D-02  0.23449765D-01  0.45464117D-03
  0.35394541D-03  0.16806580D-03 -0.75005204D-03 -0.58392749D-03 -0.27726943D-03
  0.45136140D-06  0.35139206D-06  0.16685338D-06  0.10117181D-02 -0.18761335D-04
  0.15454803D-04  0.44753575D-08 -0.96155346D-02 -0.95140445D-02 -0.94587849D-02
 -0.19230922D-03  0.30877845D-06  0.19620588D-06  0.58631481D-04  0.99450089D-04
  0.11322041D-03 -0.67527197D-04 -0.52590967D-04 -0.96850659D-04 -0.15648428D-03
 -0.20480428D-03 -0.17543322D-03 -0.60351061D-04 -0.28764451D-04 -0.14219731D-04
  0.37510738D-04  0.27494125D-04  0.21404616D-04  0.10163669D-04 -0.38238593D-05
 -0.29769355D-05 -0.14135543D-05 -0.25443531D-08 -0.19808195D-08 -0.94056317D-09
 -0.32750068D-04 -0.22930312D-04  0.78954568D-05 -0.31300532D-09 -0.33735110D-04
 -0.15190152D-04  0.35174119D-04  0.34183291D-04  0.23888291D-08  0.76563603D-07
  0.39297261D-05  0.72369190D-05  0.11692889D-04  0.15303479D-04  0.13108801D-04
  0.45095794D-05 -0.21418617D-05 -0.10588312D-05  0.27931287D-05  0.13506205D-04
  0.10514797D-04  0.49927974D-05  0.21230735D-05  0.16528466D-05  0.78483005D-06
  0.26945742D-07  0.20977690D-07  0.99609493D-08 -0.18063618D-05 -0.12713615D-04
 -0.46125664D-05 -0.11046795D-07  0.57296236D-05 -0.20776126D-05  0.52869094D-05
 -0.24033864D-05 -0.73713571D-08 -0.20579719D-08  0.19908273D-05  0.33768200D-05
  0.38443902D-05 -0.85186328D-05
MO    2     MO 0.0        OCC NO =    2.0000000  ORB. ENERGY =  -14.317406
 -0.46132947D-06 -0.84976124D-06 -0.13662414D-05 -0.17631739D-05 -0.14965574D-05
 -0.51580562D-06  0.15886280D-05  0.56634737D-06 -0.19947782D-05 -0.59550308D-05
 -0.43826621D-05 -0.23689820D-05  0.19850759D-06  0.14609356D-06  0.78968676D-07
 -0.40742062D-08 -0.29984511D-08 -0.16207676D-08 -0.15206697D-05 -0.11624111D-05
 -0.79741810D-06 -0.55394874D-09 -0.28714921D-05 -0.17533978D-06 -0.60066887D-06
  0.13895319D-05 -0.38767375D-08  0.26568764D-09  0.26562273D-06  0.45054643D-06
  0.51293118D-06 -0.14123996D-06  0.76932978D-06  0.14170927D-05  0.22783938D-05
  0.29403328D-05  0.24957134D-05  0.86017618D-06 -0.20404069D-05 -0.72740695D-06
  0.25620592D-05  0.31759762D-05  0.23373901D-05  0.12634410D-05 -0.44635070D-05
 -0.32849608D-05 -0.17756361D-05  0.19648152D-08  0.14460246D-08  0.78162682D-09
 -0.61754872D-05 -0.32566388D-05 -0.44167024D-05 -0.27858962D-08  0.10224508D-04
  0.35296269D-05 -0.40271367D-06  0.32357211D-05  0.53948414D-08  0.56816720D-08
  0.17008733D-06  0.28850031D-06  0.32844740D-06  0.39634488D-05  0.29680929D-05
  0.54671779D-05  0.87900986D-05  0.11343875D-04  0.96285228D-05  0.33185806D-05
 -0.50669254D-04 -0.18063636D-04  0.63623404D-04  0.29363247D-03  0.21610164D-03
  0.11681048D-03 -0.16386783D-05 -0.12060010D-05 -0.65188568D-06 -0.19695950D-06
 -0.14495423D-06 -0.78352827D-07 -0.69407802D-04 -0.54692302D-04  0.10576793D-04
  0.33876088D-07  0.21105369D-03  0.41064307D-05 -0.35565161D-04  0.25532361D-05
 -0.36877635D-06 -0.14464660D-08  0.27529960D-05  0.50709730D-05  0.81530824D-05
  0.10521788D-04  0.89307463D-05  0.30780839D-05 -0.50261915D-04 -0.17918419D-04
  0.63111923D-04 -0.18955951D-03 -0.13950814D-03 -0.75409024D-04  0.25501654D-03
  0.18768187D-03  0.10144861D-03 -0.70950944D-07 -0.52217028D-07 -0.28225128D-07
 -0.76905811D-04  0.92999536D-05 -0.28251698D-04  0.10698861D-07  0.36681809D-04
  0.15297726D-03 -0.39279809D-04 -0.19905425D-03  0.46244040D-07 -0.16703179D-06
  0.29431261D-05  0.49920988D-05  0.56833281D-05  0.10773237D-04  0.13936336D-05
  0.25670499D-05  0.41272887D-05  0.53263849D-05  0.45209611D-05  0.15582010D-05
 -0.85592381D-05 -0.30513763D-05  0.10747501D-04  0.13017787D-04  0.95805655D-05
  0.51786304D-05  0.19168521D-04  0.14107257D-04  0.76254655D-05 -0.22583258D-07
 -0.16620366D-07 -0.89838883D-08  0.18167762D-04  0.94481684D-05  0.13969024D-04
 -0.15763204D-07  0.19564130D-05  0.26430418D-06  0.13934347D-05 -0.58782262D-06
  0.26574626D-08  0.54087038D-08  0.60853973D-06  0.10321986D-05  0.11751216D-05
  0.11439511D-04  0.21093010D-07  0.38852974D-07  0.62467598D-07  0.80616233D-07
  0.68425933D-07  0.23583781D-07  0.63302234D-06  0.22567305D-06 -0.79486143D-06
 -0.29487935D-05 -0.21701928D-05 -0.11730651D-05  0.33889685D-05  0.24941439D-05
  0.13481719D-05  0.78368345D-08  0.57675935D-08  0.31175858D-08 -0.10246466D-04
 -0.59345589D-06 -0.25238411D-05 -0.43865616D-08  0.63526600D-05  0.47028719D-06
 -0.84954269D-06 -0.16797937D-05  0.96694657D-08 -0.65839428D-08 -0.53402374D-07
 -0.98366286D-07 -0.15815277D-06 -0.20410071D-06 -0.17323783D-06 -0.59708400D-07
  0.23534969D-06  0.83902382D-07 -0.29551941D-06 -0.11773814D-05 -0.86650512D-06
 -0.46837629D-06  0.29914606D-06  0.22015941D-06  0.11900385D-06 -0.19928937D-08
 -0.14666892D-08 -0.79279677D-09  0.56645825D-06  0.45252912D-06  0.12778861D-05
  0.43481140D-09 -0.45280461D-06  0.48489109D-06 -0.32846324D-06  0.70460264D-08
 -0.29740703D-08  0.74141881D-09 -0.37199735D-07 -0.63097791D-07 -0.71834605D-07
  0.12823837D-05 -0.43540951D-06 -0.80184298D-06 -0.12955598D-05 -0.16956093D-05
 -0.14524413D-05 -0.49965664D-06 -0.13326031D-05 -0.65877346D-06  0.17378022D-05
  0.23518023D-05  0.18309156D-05  0.86938351D-06  0.65170944D-06  0.50736621D-06
  0.24091542D-06  0.65704866D-09  0.51152288D-09  0.24288916D-09 -0.40984464D-05
 -0.19794036D-05 -0.29364365D-06 -0.50715995D-09  0.13661836D-05  0.14136503D-05
  0.22809476D-05  0.75547134D-07 -0.29587447D-09 -0.69243230D-09 -0.13171286D-06
 -0.22340994D-06 -0.25434433D-06 -0.78548986D-06  0.26890700D-05  0.49521471D-05
  0.80013205D-05  0.10472008D-04  0.89702138D-05  0.30858575D-05 -0.39901445D-05
 -0.19725313D-05  0.52034111D-05  0.10317874D-04  0.80326297D-05  0.38141767D-05
  0.16467652D-05  0.12820330D-05  0.60875462D-06 -0.71295613D-08 -0.55504773D-08
 -0.26355630D-08 -0.70394281D-05 -0.10677581D-04 -0.42522455D-05  0.40577360D-08
  0.47744965D-05 -0.16360102D-05  0.76830045D-05 -0.37279383D-05  0.53499813D-08
 -0.86504267D-08 -0.30551447D-03 -0.56263042D-03 -0.90905747D-03 -0.11897608D-02
 -0.10191368D-02 -0.35059485D-03 -0.24340454D-04 -0.12032724D-04  0.31741555D-04
  0.20566904D-04  0.16011663D-04  0.76029041D-05 -0.50924087D-05 -0.39645215D-05
 -0.18824950D-05  0.55923219D-08  0.43537119D-08  0.20672964D-08 -0.47068432D-04
 -0.15337395D-04  0.18339853D-04  0.76637214D-08 -0.24411823D-04 -0.98986635D-05
  0.45150418D-04  0.39559181D-04  0.92124051D-07 -0.58739711D-07  0.29687899D-05
  0.50356295D-05  0.57328862D-05  0.63240606D-05  0.67394070D+00  0.12411181D+01
  0.20053088D+01  0.26245181D+01  0.22481349D+01  0.77338447D+00 -0.17982301D-01
 -0.88895655D-02  0.23450104D-01  0.40095533D-03  0.31215013D-03  0.14821992D-03
  0.81544957D-03  0.63484051D-03  0.30144473D-03 -0.11735297D-05 -0.91361158D-06
 -0.43381510D-06  0.10248167D-02 -0.20006472D-04 -0.22828033D-04  0.42865323D-07
 -0.96280401D-02 -0.95179675D-02 -0.94628950D-02  0.19111860D-03  0.79514528D-07
 -0.58034849D-07  0.59141292D-04  0.10031482D-03  0.11420488D-03 -0.67885898D-04
  0.38848227D-02  0.71542256D-02  0.11559280D-01  0.15128612D-01  0.12959012D-01
  0.44580503D-02 -0.13603112D-03 -0.67247096D-04  0.17739353D-03 -0.60072799D-05
 -0.46767634D-05 -0.22206927D-05  0.43507706D-05  0.33871444D-05  0.16083360D-05
 -0.14868480D-07 -0.11575349D-07 -0.54963852D-08 -0.27810794D-04  0.12185848D-04
 -0.27116631D-04  0.27093811D-07 -0.59621985D-04 -0.10916943D-03 -0.22113606D-04
  0.17643168D-05  0.49944014D-07  0.14710702D-06  0.82628933D-06  0.14015431D-05
  0.15956073D-05 -0.14759216D-04 -0.42997279D-04 -0.79183082D-04 -0.12793829D-03
 -0.16744372D-03 -0.14343055D-03 -0.49341771D-04 -0.30326031D-04 -0.14991699D-04
  0.39547141D-04  0.25492197D-04  0.19846083D-04  0.94236220D-05  0.44916540D-05
  0.34968244D-05  0.16604159D-05 -0.12109515D-07 -0.94274509D-08 -0.44764871D-08
 -0.35569947D-04 -0.21080475D-04 -0.10855055D-04  0.62126960D-08 -0.31278251D-04
 -0.17310286D-04  0.38286859D-04 -0.37560731D-04  0.88724848D-07  0.49201315D-07
 -0.52906106D-07 -0.97431015D-07 -0.15742198D-06 -0.20603153D-06 -0.17648447D-06
 -0.60712701D-07 -0.54211080D-06 -0.26799293D-06  0.70694818D-06  0.20548715D-05
  0.15997502D-05  0.75961800D-06  0.44265584D-06  0.34461464D-06  0.16363522D-06
 -0.93325309D-08 -0.72655243D-08 -0.34499279D-08 -0.87194599D-06 -0.71954893D-06
  0.25449854D-06  0.39054596D-08  0.28912011D-06 -0.91148866D-06  0.15053830D-05
  0.81220022D-06  0.11381062D-09  0.12123315D-08  0.21907391D-06  0.37159081D-06
  0.42304301D-06  0.10579985D-05
MO    3     MO 0.0        OCC NO =    2.0000000  ORB. ENERGY =  -14.314343
 -0.10940430D-05 -0.20152091D-05 -0.32400421D-05 -0.41813676D-05 -0.35490864D-05
 -0.12232332D-05  0.48127077D-05  0.17157348D-05 -0.60431291D-05 -0.67914543D-05
 -0.49982360D-05 -0.27017212D-05 -0.24221486D-05 -0.17826035D-05 -0.96355947D-06
  0.66855573D-09  0.49203000D-09  0.26595941D-09 -0.75730078D-05 -0.62385972D-05
 -0.25506326D-05 -0.43275663D-08  0.55922228D-05 -0.19377980D-05 -0.27408548D-05
 -0.31963962D-05 -0.55213686D-09 -0.12893721D-08  0.14936671D-05  0.25335421D-05
  0.28843481D-05 -0.44655809D-05  0.24769234D-05  0.45624518D-05  0.73354849D-05
  0.94666544D-05  0.80351640D-05  0.27694112D-05 -0.48281516D-04 -0.17212406D-04
  0.60625215D-04  0.32028129D-03  0.23571409D-03  0.12741170D-03 -0.32607980D-04
 -0.23998155D-04 -0.12971842D-04 -0.80474150D-07 -0.59225723D-07 -0.32013573D-07
 -0.78466859D-04 -0.35761794D-04 -0.64975108D-05  0.19658442D-08  0.20934175D-03
 -0.22656236D-04 -0.39838900D-04  0.56061002D-05 -0.98244038D-07  0.83510688D-08
  0.23891954D-05  0.40525276D-05  0.46136594D-05  0.95343443D-05  0.32023229D-05
  0.58986256D-05  0.94837777D-05  0.12239088D-04  0.10388367D-04  0.35804696D-05
 -0.52484419D-04 -0.18710744D-04  0.65902635D-04 -0.15160716D-03 -0.11157675D-03
 -0.60311130D-04  0.25290361D-03  0.18612684D-03  0.10060806D-03  0.13702347D-06
  0.10084374D-06  0.54509563D-07 -0.68882676D-04  0.35185252D-04 -0.38026880D-04
 -0.28449247D-07  0.56620844D-04  0.15535666D-03 -0.36098700D-04 -0.17575426D-03
 -0.16834924D-06  0.18888613D-06  0.69369937D-06  0.12777827D-05  0.20544120D-05
  0.26512779D-05  0.22503676D-05  0.77561494D-06 -0.16855443D-05 -0.60089813D-06
  0.21164722D-05 -0.52129440D-05 -0.38365161D-05 -0.20737710D-05  0.22305638D-06
  0.16416048D-06  0.88734475D-07 -0.62384034D-08 -0.45912128D-08 -0.24817110D-08
 -0.57422691D-05 -0.33681025D-05 -0.40824454D-05  0.81442573D-08  0.41439727D-05
  0.10324784D-04 -0.65926595D-06 -0.47421024D-05 -0.83973640D-08 -0.26327492D-07
  0.18982743D-06  0.32198324D-06  0.36656654D-06  0.48871621D-05 -0.20124766D-06
 -0.37069485D-06 -0.59600114D-06 -0.76915662D-06 -0.65284940D-06 -0.22501201D-06
  0.14362232D-05  0.51201491D-06 -0.18034094D-05  0.48844063D-05  0.35947256D-05
  0.19430748D-05 -0.15563975D-05 -0.11454456D-05 -0.61915339D-06 -0.13596533D-07
 -0.10006499D-07 -0.54088625D-08 -0.99945979D-05 -0.32030602D-06 -0.20951158D-05
  0.73521506D-08  0.39064473D-05  0.34119897D-05 -0.16004184D-05 -0.75571701D-05
  0.21091099D-07 -0.35463991D-08  0.20698944D-06  0.35109326D-06  0.39970727D-06
  0.90488068D-06  0.20281883D-05  0.37358892D-05  0.60065421D-05  0.77516156D-05
  0.65794630D-05  0.22676872D-05 -0.84189282D-05 -0.30013557D-05  0.10571319D-04
  0.81265821D-05  0.59808361D-05  0.32328509D-05  0.19008744D-04  0.13989668D-04
  0.75619042D-05  0.25562280D-08  0.18812805D-08  0.10168979D-08  0.26513111D-04
  0.95557636D-05  0.14387097D-04 -0.44136856D-09  0.69903853D-05  0.62352290D-05
  0.32073604D-05  0.77304697D-06  0.33991171D-08  0.13076697D-08 -0.14545678D-06
 -0.26792898D-06 -0.43077474D-06 -0.55592721D-06 -0.47186325D-06 -0.16263307D-06
  0.76042096D-06  0.27109078D-06 -0.95483090D-06 -0.92089155D-07 -0.67773897D-07
 -0.36634159D-07  0.22835664D-05  0.16806126D-05  0.90842984D-06 -0.21968473D-08
 -0.16167908D-08 -0.87393193D-09  0.23444021D-05  0.99784067D-06  0.22627007D-05