 Generated by Multiwfn
GAUSSIAN             43 MOL ORBITALS    192 PRIMITIVES       12 NUCLEI
  B    1    (CENTRE  1)   1.02499004  2.54011114  0.00010490  CHARGE =  5.0
  H    2    (CENTRE  2)   1.86730431  4.62867728  0.00010136  CHARGE =  1.0
  B    3    (CENTRE  3)  -2.71334917 -0.38272304  0.00025096  CHARGE =  5.0
  H    4    (CENTRE  4)  -4.94299310 -0.69711957  0.00035975  CHARGE =  1.0
  B    5    (CENTRE  5)   1.68770587 -2.15749468 -0.00022669  CHARGE =  5.0
  N    6    (CENTRE  6)   2.63365857  0.37142357 -0.00020422  CHARGE =  7.0
  N    7    (CENTRE  7)  -1.63847038  2.09445213  0.00022835  CHARGE =  7.0
  H    8    (CENTRE  8)  -2.80861809  3.59359322  0.00037345  CHARGE =  1.0
  N    9    (CENTRE  9)  -0.99498885 -2.46579102 -0.00007332  CHARGE =  7.0
  H   10    (CENTRE 10)  -1.70513774 -4.23001704 -0.00016696  CHARGE =  1.0
  H   11    (CENTRE 11)   4.51680796  0.63691139 -0.00040924  CHARGE =  1.0
  H   12    (CENTRE 12)   3.07450768 -3.93210506 -0.00055989  CHARGE =  1.0
CENTRE ASSIGNMENTS    1  1  1  1  1  1  1  1  1  1  1  1  1  1  1  1  1  1  1  1
CENTRE ASSIGNMENTS    1  1  1  1  1  1  1  1  2  2  2  2  3  3  3  3  3  3  3  3
CENTRE ASSIGNMENTS    3  3  3  3  3  3  3  3  3  3  3  3  3  3  3  3  3  3  3  3
CENTRE ASSIGNMENTS    4  4  4  4  5  5  5  5  5  5  5  5  5  5  5  5  5  5  5  5
CENTRE ASSIGNMENTS    5  5  5  5  5  5  5  5  5  5  5  5  6  6  6  6  6  6  6  6
CENTRE ASSIGNMENTS    6  6  6  6  6  6  6  6  6  6  6  6  6  6  6  6  6  6  6  6
CENTRE ASSIGNMENTS    7  7  7  7  7  7  7  7  7  7  7  7  7  7  7  7  7  7  7  7
CENTRE ASSIGNMENTS    7  7  7  7  7  7  7  7  8  8  8  8  9  9  9  9  9  9  9  9
CENTRE ASSIGNMENTS    9  9  9  9  9  9  9  9  9  9  9  9  9  9  9  9  9  9  9  9
CENTRE ASSIGNMENTS   10 10 10 10 11 11 11 11 12 12 12 12
TYPE ASSIGNMENTS      1  1  1  1  1  1  1  1  1  2  2  2  3  3  3  4  4  4  1  2
TYPE ASSIGNMENTS      3  4  5  6  7  8  9 10  1  1  1  1  1  1  1  1  1  1  1  1
TYPE ASSIGNMENTS      1  2  2  2  3  3  3  4  4  4  1  2  3  4  5  6  7  8  9 10
TYPE ASSIGNMENTS      1  1  1  1  1  1  1  1  1  1  1  1  1  2  2  2  3  3  3  4
TYPE ASSIGNMENTS      4  4  1  2  3  4  5  6  7  8  9 10  1  1  1  1  1  1  1  1
TYPE ASSIGNMENTS      1  2  2  2  3  3  3  4  4  4  1  2  3  4  5  6  7  8  9 10
TYPE ASSIGNMENTS      1  1  1  1  1  1  1  1  1  2  2  2  3  3  3  4  4  4  1  2
TYPE ASSIGNMENTS      3  4  5  6  7  8  9 10  1  1  1  1  1  1  1  1  1  1  1  1
TYPE ASSIGNMENTS      1  2  2  2  3  3  3  4  4  4  1  2  3  4  5  6  7  8  9 10
TYPE ASSIGNMENTS      1  1  1  1  1  1  1  1  1  1  1  1
EXPONENTS  0.2068882D+04 0.3106496D+03 0.7068303D+02 0.1986108D+02 0.6299305D+01
EXPONENTS  0.2127027D+01 0.4727971D+01 0.1190338D+01 0.3594117D+00 0.4727971D+01
EXPONENTS  0.1190338D+01 0.3594117D+00 0.4727971D+01 0.1190338D+01 0.3594117D+00
EXPONENTS  0.4727971D+01 0.1190338D+01 0.3594117D+00 0.1267512D+00 0.1267512D+00
EXPONENTS  0.1267512D+00 0.1267512D+00 0.6000000D+00 0.6000000D+00 0.6000000D+00
EXPONENTS  0.6000000D+00 0.6000000D+00 0.6000000D+00 0.1873114D+02 0.2825394D+01
EXPONENTS  0.6401217D+00 0.1612778D+00 0.2068882D+04 0.3106496D+03 0.7068303D+02
EXPONENTS  0.1986108D+02 0.6299305D+01 0.2127027D+01 0.4727971D+01 0.1190338D+01
EXPONENTS  0.3594117D+00 0.4727971D+01 0.1190338D+01 0.3594117D+00 0.4727971D+01
EXPONENTS  0.1190338D+01 0.3594117D+00 0.4727971D+01 0.1190338D+01 0.3594117D+00
EXPONENTS  0.1267512D+00 0.1267512D+00 0.1267512D+00 0.1267512D+00 0.6000000D+00
EXPONENTS  0.6000000D+00 0.6000000D+00 0.6000000D+00 0.6000000D+00 0.6000000D+00
EXPONENTS  0.1873114D+02 0.2825394D+01 0.6401217D+00 0.1612778D+00 0.2068882D+04
EXPONENTS  0.3106496D+03 0.7068303D+02 0.1986108D+02 0.6299305D+01 0.2127027D+01
EXPONENTS  0.4727971D+01 0.1190338D+01 0.3594117D+00 0.4727971D+01 0.1190338D+01
EXPONENTS  0.3594117D+00 0.4727971D+01 0.1190338D+01 0.3594117D+00 0.4727971D+01
EXPONENTS  0.1190338D+01 0.3594117D+00 0.1267512D+00 0.1267512D+00 0.1267512D+00
EXPONENTS  0.1267512D+00 0.6000000D+00 0.6000000D+00 0.6000000D+00 0.6000000D+00
EXPONENTS  0.6000000D+00 0.6000000D+00 0.4173511D+04 0.6274579D+03 0.1429021D+03
EXPONENTS  0.4023433D+02 0.1282021D+02 0.4390437D+01 0.1162636D+02 0.2716280D+01
EXPONENTS  0.7722184D+00 0.1162636D+02 0.2716280D+01 0.7722184D+00 0.1162636D+02
EXPONENTS  0.2716280D+01 0.7722184D+00 0.1162636D+02 0.2716280D+01 0.7722184D+00
EXPONENTS  0.2120315D+00 0.2120315D+00 0.2120315D+00 0.2120315D+00 0.8000000D+00
EXPONENTS  0.8000000D+00 0.8000000D+00 0.8000000D+00 0.8000000D+00 0.8000000D+00
EXPONENTS  0.4173511D+04 0.6274579D+03 0.1429021D+03 0.4023433D+02 0.1282021D+02
EXPONENTS  0.4390437D+01 0.1162636D+02 0.2716280D+01 0.7722184D+00 0.1162636D+02
EXPONENTS  0.2716280D+01 0.7722184D+00 0.1162636D+02 0.2716280D+01 0.7722184D+00
EXPONENTS  0.1162636D+02 0.2716280D+01 0.7722184D+00 0.2120315D+00 0.2120315D+00
EXPONENTS  0.2120315D+00 0.2120315D+00 0.8000000D+00 0.8000000D+00 0.8000000D+00
EXPONENTS  0.8000000D+00 0.8000000D+00 0.8000000D+00 0.1873114D+02 0.2825394D+01
EXPONENTS  0.6401217D+00 0.1612778D+00 0.4173511D+04 0.6274579D+03 0.1429021D+03
EXPONENTS  0.4023433D+02 0.1282021D+02 0.4390437D+01 0.1162636D+02 0.2716280D+01
EXPONENTS  0.7722184D+00 0.1162636D+02 0.2716280D+01 0.7722184D+00 0.1162636D+02
EXPONENTS  0.2716280D+01 0.7722184D+00 0.1162636D+02 0.2716280D+01 0.7722184D+00
EXPONENTS  0.2120315D+00 0.2120315D+00 0.2120315D+00 0.2120315D+00 0.8000000D+00
EXPONENTS  0.8000000D+00 0.8000000D+00 0.8000000D+00 0.8000000D+00 0.8000000D+00
EXPONENTS  0.1873114D+02 0.2825394D+01 0.6401217D+00 0.1612778D+00 0.1873114D+02
EXPONENTS  0.2825394D+01 0.6401217D+00 0.1612778D+00 0.1873114D+02 0.2825394D+01
EXPONENTS  0.6401217D+00 0.1612778D+00
MO    1     MO 0.0        OCC NO =    1.0000000  ORB. ENERGY =  -14.097448
  0.21575745D-05  0.39742164D-05  0.63897233D-05  0.82461219D-05  0.69991930D-05
  0.24123520D-05 -0.47786574D-04 -0.17035958D-04  0.60003735D-04 -0.30208784D-03
 -0.22232444D-03 -0.12017413D-03 -0.70323655D-04 -0.51755369D-04 -0.27975585D-04
  0.11885003D-07  0.87468820D-08  0.47279954D-08 -0.77991477D-04  0.31729682D-04
  0.49650787D-05 -0.41049361D-09  0.20557853D-03 -0.19166071D-04 -0.34210548D-04
  0.54106010D-04 -0.22947208D-07 -0.89189461D-09  0.31565379D-05  0.53540856D-05
  0.60954373D-05  0.24734285D-05  0.23045791D-05  0.42449965D-05  0.68250820D-05
  0.88079648D-05  0.74760775D-05  0.25767156D-05 -0.45001259D-04 -0.16042991D-04
  0.56506324D-04  0.14203664D-03  0.10453323D-03  0.56503863D-04  0.28470144D-03
  0.20952876D-03  0.11325762D-03 -0.59483976D-08 -0.43777803D-08 -0.23663432D-08
 -0.82860708D-04 -0.11827768D-04 -0.32022061D-04  0.11876304D-08  0.93634444D-05
  0.19270169D-03 -0.35819403D-04  0.16722207D-03 -0.39537187D-08 -0.30474127D-08
  0.34435885D-05  0.58409778D-05  0.66497468D-05  0.41041923D-05  0.16811829D-05
  0.30967111D-05  0.49788750D-05  0.64253815D-05  0.54537741D-05  0.18797056D-05
 -0.88787091D-05 -0.31652681D-05  0.11148648D-04 -0.11801311D-04 -0.86852877D-05
 -0.46947015D-05  0.20673956D-04  0.15215196D-04  0.82243451D-05  0.16844059D-08
  0.12396547D-08  0.67007669D-09  0.17576888D-04 -0.78286939D-05  0.95974814D-05
  0.16285915D-08 -0.26058131D-05  0.42277984D-06  0.31555371D-05 -0.32738240D-05
  0.83265730D-09 -0.12049628D-09 -0.23332955D-03 -0.42969586D-03 -0.69427145D-03
 -0.90865207D-03 -0.77834194D-03 -0.26775864D-03 -0.23530139D-04 -0.11632144D-04
  0.30684851D-04 -0.19238383D-04 -0.14977388D-04 -0.71117936D-05 -0.19415413D-05
 -0.15115209D-05 -0.71772360D-06  0.43675405D-08  0.34002000D-08  0.16145352D-08
 -0.22222572D-04  0.28433323D-04 -0.73053972D-06 -0.40643305D-08 -0.43069441D-04
 -0.84042527D-05  0.36181381D-04  0.32663422D-04  0.13170220D-07 -0.10417684D-07
  0.67392365D+00  0.12410867D+01  0.20052580D+01  0.26244517D+01  0.22480781D+01
  0.77336490D+00 -0.17920155D-01 -0.88588437D-02  0.23369062D-01 -0.63184949D-03
 -0.49190492D-03 -0.23357385D-03  0.97482074D-03  0.75891351D-03  0.36035898D-03
  0.16422713D-06  0.12785344D-06  0.60709338D-07  0.98418304D-03  0.24567560D-04
 -0.38799670D-04 -0.80856203D-08 -0.95320448D-02 -0.94855595D-02 -0.94098628D-02
 -0.24081741D-03  0.62836159D-09  0.15603272D-07  0.56892454D-04  0.96500371D-04
  0.10986226D-03 -0.56130553D-04 -0.83572545D-02 -0.15390583D-01 -0.24866988D-01
 -0.32545542D-01 -0.27878174D-01 -0.95904147D-02  0.19187125D-03  0.94851714D-04
 -0.25021274D-03  0.93700678D-05  0.72947474D-05  0.34638041D-05  0.32212373D-04
  0.25077847D-04  0.11907849D-04  0.31846820D-08  0.24793258D-08  0.11772716D-08
 -0.34096272D-04 -0.53586654D-05 -0.28162909D-04 -0.28850714D-08  0.11001609D-03
  0.64775227D-04  0.15165014D-03  0.10155237D-04  0.11369661D-07 -0.10143832D-07
 -0.47753313D-06 -0.80998657D-06 -0.92214108D-06 -0.14060793D-04 -0.29795580D-07
 -0.50538944D-07 -0.57536801D-07 -0.14494564D-04  0.35814883D-06  0.60748820D-06
  0.69160385D-06  0.75165480D-05
MO    2     MO 0.0        OCC NO =    1.0000000  ORB. ENERGY =  -14.097400
  0.17397811D-05  0.32046480D-05  0.51524153D-05  0.66493403D-05  0.56438672D-05
  0.19452234D-05 -0.10091609D-04 -0.35976680D-05  0.12671639D-04 -0.13132245D-04
 -0.96648018D-05 -0.52241631D-05 -0.24902759D-04 -0.18327425D-04 -0.99066135D-05
 -0.11387997D-08 -0.83811054D-09 -0.45302803D-09  0.15639415D-04 -0.40828266D-05
 -0.11252778D-04 -0.58522237D-10  0.18545603D-05  0.57960048D-06  0.23169553D-05
  0.24966048D-05  0.84402856D-09 -0.29611672D-11  0.43820302D-06  0.74327527D-06
  0.84619262D-06  0.75652775D-05  0.23583963D-05  0.43441268D-05  0.69844631D-05
  0.90136507D-05  0.76506608D-05  0.26368878D-05 -0.46123342D-04 -0.16443014D-04
  0.57915279D-04  0.21876053D-03  0.16099891D-03  0.87025539D-04 -0.22720565D-03
 -0.16721418D-03 -0.90385106D-04 -0.40282170D-07 -0.29646050D-07 -0.16024726D-07
 -0.84846269D-04 -0.20522713D-04  0.26668154D-04  0.47674591D-08  0.68034605D-04
  0.13891828D-03 -0.36682219D-04 -0.23487931D-03 -0.39973847D-07  0.50046639D-07
  0.35287150D-05  0.59853685D-05  0.68141305D-05  0.41757555D-05  0.22058718D-05
  0.40631792D-05  0.65327572D-05  0.84307112D-05  0.71558699D-05  0.24663524D-05
 -0.47998714D-04 -0.17111586D-04  0.60270110D-04 -0.31010967D-03 -0.22822819D-03
 -0.12336531D-03 -0.15451907D-04 -0.11371979D-04 -0.61469522D-05  0.18427012D-07
  0.13561536D-07  0.73304842D-08 -0.77596638D-04  0.31682261D-04  0.42582132D-05
 -0.95664895D-09  0.20276409D-03 -0.16343331D-04 -0.34126271D-04  0.73571321D-04
 -0.24736324D-07 -0.32753855D-08 -0.24085482D-03 -0.44355428D-03 -0.71666287D-03
 -0.93795764D-03 -0.80344478D-03 -0.27639431D-03 -0.24085018D-04 -0.11906449D-04
  0.31408449D-04 -0.19519164D-04 -0.15195981D-04 -0.72155891D-05 -0.34916240D-05
 -0.27182851D-05 -0.12907379D-05  0.40603663D-08  0.31610600D-08  0.15009831D-08
 -0.22788309D-04  0.27858441D-04  0.85608509D-05 -0.32842822D-08 -0.32800585D-04
 -0.19937001D-04  0.37130265D-04 -0.45317604D-04  0.73233343D-08 -0.12704925D-08
  0.83650469D-02  0.15404933D-01  0.24890174D-01  0.32575888D-01  0.27904167D-01
  0.95993568D-02 -0.25278038D-03 -0.12496219D-03  0.32964226D-03  0.22520192D-05
  0.17532329D-05  0.83249701D-06 -0.41936270D-05 -0.32648056D-05 -0.15502452D-05
  0.21825373D-08  0.16991401D-08  0.80681184D-09 -0.96761683D-05 -0.12354641D-04
  0.24627941D-04  0.90752233D-09 -0.12723522D-03 -0.16981182D-03 -0.81820551D-04
  0.94928380D-05  0.11356785D-07 -0.93583346D-08  0.92875143D-06  0.15753382D-05
  0.17934669D-05 -0.15454154D-04  0.67392411D+00  0.12410876D+01  0.20052594D+01
  0.26244535D+01  0.22480796D+01  0.77336543D+00 -0.17919817D-01 -0.88586765D-02
  0.23368621D-01 -0.33905746D-03 -0.26396165D-03 -0.12533833D-03 -0.11111908D-02
 -0.86507978D-03 -0.41077048D-03  0.10108991D-08  0.78700112D-09  0.37369597D-09
  0.98334356D-03  0.12875624D-04  0.43437044D-04 -0.13968467D-08 -0.95915097D-02
 -0.94250705D-02 -0.94085564D-02  0.17953923D-03  0.36796616D-07 -0.19763591D-07
  0.56870051D-04  0.96462370D-04  0.10981900D-03 -0.56422771D-04 -0.33945525D-07
 -0.57578035D-07 -0.65550558D-07 -0.14867487D-04  0.31660947D-05  0.53702958D-05
  0.61138919D-05  0.26755386D-05
MO    3     MO 0.0        OCC NO =    1.0000000  ORB. ENERGY =  -14.093380
  0.25089001D-05  0.46213523D-05  0.74301848D-05  0.95888674D-05  0.81388967D-05
  0.28051639D-05 -0.50910904D-04 -0.18149785D-04  0.63926834D-04  0.17641114D-03
  0.12983147D-03  0.70178445D-04 -0.27514284D-03 -0.20249401D-03 -0.10945509D-03
 -0.37277290D-07 -0.27434579D-07 -0.14829349D-07 -0.87829174D-04 -0.22169039D-04
  0.28341470D-04  0.45651152D-08  0.77301001D-04  0.12860842D-03 -0.39951546D-04
 -0.24238388D-03 -0.39607598D-07  0.48731908D-07  0.33497014D-05  0.56817276D-05
  0.64684461D-05  0.38058904D-05  0.99672515D-06  0.18359512D-05  0.29518322D-05
  0.38094244D-05  0.32333862D-05  0.11144236D-05 -0.67394446D-05 -0.24026183D-05
  0.84624574D-05  0.21920305D-04  0.16132459D-04  0.87201576D-05  0.31001172D-05
  0.22815610D-05  0.12332634D-05 -0.24866962D-08 -0.18301079D-08 -0.98923729D-09
  0.17380441D-04  0.13371291D-04  0.18851069D-05 -0.77431940D-09 -0.42839467D-06
 -0.16168901D-05  0.12600399D-05  0.34056959D-06 -0.45446577D-09 -0.61771271D-09
  0.41859383D-06  0.71001436D-06  0.80832625D-06  0.88605399D-05  0.25210887D-05
  0.46438035D-05  0.74662817D-05  0.96354515D-05  0.81784366D-05  0.28187917D-05
 -0.50941642D-04 -0.18160743D-04  0.63965431D-04  0.93445728D-04  0.68772280D-04
  0.37173820D-04  0.31332998D-03  0.23059820D-03  0.12464639D-03  0.43939629D-08
  0.32337792D-08  0.17479706D-08 -0.87890414D-04 -0.13456166D-04 -0.33392756D-04
  0.30070222D-09  0.16823175D-04  0.18920230D-03 -0.39979770D-04  0.17807461D-03
 -0.23096932D-08  0.17643417D-08  0.67391925D+00  0.12410786D+01  0.20052449D+01
  0.26244345D+01  0.22480634D+01  0.77335985D+00 -0.18086950D-01 -0.89412989D-02
  0.23586574D-01  0.10471761D-02  0.81524333D-03  0.38710637D-03  0.14855579D-03
  0.11565306D-03  0.54916162D-04 -0.61436230D-07 -0.47829086D-07 -0.22710942D-07
  0.10316420D-02 -0.35499786D-04 -0.50300896D-05  0.96453746D-09 -0.95879162D-02
 -0.98153435D-02 -0.94835784D-02  0.65337688D-04  0.29840773D-07 -0.44198036D-07
  0.24375340D-03  0.44889226D-03  0.72528760D-03  0.94924555D-03  0.81311389D-03
  0.27972060D-03 -0.36088340D-04 -0.17840301D-04  0.47061571D-04  0.98167368D-05
  0.76424863D-05  0.36289228D-05 -0.10381333D-04 -0.80820336D-05 -0.38376354D-05
  0.36006865D-09  0.28031920D-09  0.13310547D-09 -0.19317916D-04 -0.20015547D-04
  0.16416051D-04  0.13044194D-08 -0.53681839D-04 -0.19435779D-04  0.28215625D-04
  0.33867300D-04  0.13309046D-07 -0.10523258D-07  0.80182588D-06  0.13600484D-05
  0.15483671D-05 -0.14696949D-04  0.24539163D-03  0.45190919D-03  0.73016214D-03
  0.95562527D-03  0.81857869D-03  0.28160055D-03 -0.36126924D-04 -0.17859375D-04
  0.47111888D-04  0.65200130D-05  0.50759342D-05  0.24102331D-05  0.12651366D-04
  0.98492907D-05  0.46767916D-05  0.21511296D-08  0.16746888D-08  0.79520147D-09
 -0.19278124D-04 -0.14689946D-04 -0.21300848D-04 -0.13022330D-08 -0.42133740D-04
 -0.31123008D-04  0.28181816D-04 -0.46915726D-04  0.70409856D-08 -0.13841052D-08
  0.80531546D-06  0.13659674D-05  0.15551056D-05 -0.14698244D-04  0.61385375D-04
  0.10412121D-03  0.11853832D-03 -0.65696023D-04  0.33533438D-05  0.56879059D-05
  0.64754798D-05  0.37928013D-05
MO    4     MO 0.0        OCC NO =    1.0000000  ORB. ENERGY =   -6.525644
  0.40502312D+00  0.74604587D+00  0.11994884D+01  0.15479744D+01  0.13138990D+01
  0.45285033D+00 -0.17009816D-01 -0.60640151D-02  0.21358561D-01 -0.19258102D-03
 -0.14173185D-03 -0.76611018D-04 -0.11098414D-02 -0.81679846D-03 -0.44150811D-03
 -0.48470602D-07 -0.35672405D-07 -0.19282181D-07 -0.17417093D-02 -0.29265094D-04
 -0.79185127D-04 -0.68709871D-08 -0.60931886D-02 -0.60747961D-02 -0.69111592D-02
 -0.87485532D-04 -0.13328695D-06  0.12676063D-06 -0.19894557D-03 -0.33744934D-03
 -0.38417415D-03  0.38691117D-03  0.25595976D-04  0.47147363D-04  0.75803270D-04
  0.97826302D-04  0.83033598D-04  0.28618480D-04 -0.50389815D-04 -0.17964016D-04
  0.63272523D-04  0.29556689D-03  0.21752529D-03  0.11758002D-03  0.16639385D-05
  0.12245915D-05  0.66193452D-06 -0.30314313D-07 -0.22310109D-07 -0.12059394D-07
  0.23091306D-03  0.47809471D-03  0.30448948D-04 -0.33237246D-07  0.29162885D-03
  0.83235482D-04  0.19650898D-04  0.34777043D-03 -0.62593287D-07 -0.10997874D-07
 -0.19431642D-04 -0.32959743D-04 -0.37523503D-04  0.45297211D-03  0.43682205D-02
  0.80461896D-02  0.12936619D-01  0.16695080D-01  0.14170550D-01  0.48840423D-02
 -0.21528897D-03 -0.76750719D-04  0.27032995D-03 -0.21988471D-03 -0.16182626D-03
 -0.87472750D-04  0.21567446D-03  0.15872768D-03  0.85797860D-04  0.24718106D-07
  0.18191527D-07  0.98331563D-08  0.23487452D-03 -0.35756044D-03  0.37430830D-03
  0.63167899D-07 -0.47484930D-04  0.30628771D-03 -0.58016331D-04 -0.21985284D-03
  0.17527177D-07  0.38989213D-07 -0.98188094D-04 -0.18082158D-03 -0.29215841D-03
 -0.38237255D-03 -0.32753636D-03 -0.11267630D-03 -0.26854892D-03 -0.13275739D-03
  0.35020548D-03 -0.44682224D-03 -0.34785825D-03 -0.16517540D-03  0.32940525D-03
  0.25644725D-03  0.12177022D-03  0.89430977D-07  0.69623444D-07  0.33059674D-07
 -0.10110441D-02  0.70978417D-03 -0.26011173D-03 -0.10234057D-06  0.11150094D-03
  0.17918210D-03  0.44517273D-03 -0.34644500D-03  0.80340030D-07  0.32215384D-08
 -0.10518491D-03 -0.19370680D-03 -0.31297741D-03 -0.40962015D-03 -0.35087637D-03
 -0.12070554D-03 -0.23236698D-03 -0.11487081D-03  0.30302184D-03  0.58790397D-03
  0.45769263D-03  0.21732865D-03 -0.58795119D-04 -0.45772939D-04 -0.21734611D-04
 -0.24320473D-07 -0.18933876D-07 -0.89904743D-08 -0.91552627D-03 -0.60971153D-03
  0.30141131D-03  0.36795958D-07  0.42920387D-03 -0.67555635D-04  0.41128472D-03
  0.14485625D-03 -0.27407835D-07 -0.19990960D-07 -0.48679810D-04 -0.82570171D-04
 -0.94003221D-04  0.47249411D-04  0.12176671D-03  0.22424357D-03  0.36231651D-03
  0.47419443D-03  0.40619003D-03  0.13973408D-03 -0.34372470D-03 -0.16992060D-03
  0.44823964D-03  0.10816863D-03  0.84211008D-04  0.39986365D-04  0.24905411D-03
  0.19389260D-03  0.92067065D-04  0.66986103D-07  0.52149751D-07  0.24762546D-07
 -0.13116843D-02 -0.18833225D-03 -0.42706839D-03 -0.41594616D-07  0.42082651D-03
  0.43572187D-03  0.36579790D-03  0.99176567D-05 -0.21728112D-07 -0.15093116D-07
 -0.34054522D-04 -0.57762915D-04 -0.65761037D-04 -0.26535308D-04 -0.52515746D-04
 -0.89076644D-04 -0.10141061D-03  0.44614230D-04 -0.21653419D-04 -0.36728298D-04
 -0.41813869D-04  0.48956357D-03
MO    5     MO 0.0        OCC NO =    1.0000000  ORB. ENERGY =   -6.525188
 -0.43232505D-02 -0.79633557D-02 -0.12803439D-01 -0.16523207D-01 -0.14024667D-01
 -0.48337621D-02  0.14992248D-03  0.53447505D-04 -0.18825181D-03 -0.14765148D-03
 -0.10866552D-03 -0.58737510D-04 -0.24429427D-03 -0.17979071D-03 -0.97183161D-04
 -0.72209735D-08 -0.53143447D-08 -0.28725890D-08  0.27236518D-03 -0.23985641D-03
 -0.45716532D-03 -0.38807967D-08  0.51962478D-04  0.46828909D-03  0.90261104D-04
  0.91494391D-08  0.33523265D-07  0.70894105D-07 -0.17387587D-04 -0.29492638D-04
 -0.33576326D-04  0.48166893D-03  0.24769551D-04  0.45625103D-04  0.73355789D-04
  0.94667757D-04  0.80352670D-04  0.27694467D-04 -0.49332143D-04 -0.17586955D-04
  0.61944445D-04  0.27820779D-03  0.20474969D-03  0.11067436D-03  0.80215526D-04
  0.59035386D-04  0.31910689D-04 -0.25249508D-07 -0.18582618D-07 -0.10044554D-07
  0.22584565D-03  0.45773788D-03  0.10227453D-03 -0.29542782D-07  0.36212005D-03
  0.47565253D-05  0.19249068D-04 -0.19126321D-03 -0.10250915D-06 -0.66461690D-08
 -0.19039135D-04 -0.32293977D-04 -0.36765551D-04  0.44344198D-03  0.40502192D+00
  0.74604365D+00  0.11994849D+01  0.15479698D+01  0.13138951D+01  0.45284898D+00
 -0.17013735D-01 -0.60654125D-02  0.21363483D-01 -0.48774488D-03 -0.35896052D-03
 -0.19403070D-03  0.10131491D-02  0.74563683D-03  0.40304276D-03  0.10923521D-06
  0.80392701D-07  0.43455064D-07 -0.17468404D-02 -0.42166189D-04  0.59911099D-04
  0.61346933D-08 -0.61191205D-02 -0.60636511D-02 -0.69123521D-02  0.69928351D-04
 -0.13829622D-06  0.92228431D-07 -0.96139746D-04 -0.17704938D-03 -0.28606356D-03
 -0.37439570D-03 -0.32070347D-03 -0.11032571D-03 -0.26323140D-03 -0.13012866D-03
  0.34327108D-03 -0.32890145D-03 -0.25605503D-03 -0.12158398D-03 -0.44755612D-03
 -0.34842959D-03 -0.16544669D-03  0.25824359D-07  0.20104676D-07  0.95464113D-08
 -0.99042085D-03  0.59538577D-03  0.45279978D-03 -0.47495654D-07  0.22275466D-04
  0.26184498D-03  0.43584199D-03  0.26402570D-03  0.13032340D-06 -0.28448690D-07
  0.12406956D-03  0.22848447D-03  0.36916866D-03  0.48316241D-03  0.41387191D-03
  0.14237673D-03 -0.33888894D-03 -0.16753003D-03  0.44193349D-03  0.16028131D-03
  0.12478156D-03  0.59250700D-04 -0.20804651D-03 -0.16196753D-03 -0.76907911D-04
  0.28718635D-07  0.22357916D-07  0.10616329D-07 -0.12926305D-02 -0.28634918D-03
  0.35181194D-03  0.14303796D-07  0.41551185D-03  0.43360617D-03  0.35706866D-03
 -0.19184113D-04 -0.27890568D-07  0.30677850D-07 -0.33008389D-04 -0.55988476D-04
 -0.63740901D-04 -0.27567428D-04 -0.10790998D-03 -0.19872525D-03 -0.32108586D-03
 -0.42023237D-03 -0.35996669D-03 -0.12383271D-03 -0.22512655D-03 -0.11129150D-03
  0.29357985D-03  0.54757483D-03  0.42629575D-03  0.20242030D-03  0.21414823D-03
  0.16671782D-03  0.79163518D-04 -0.11805600D-07 -0.91908480D-08 -0.43641397D-08
 -0.88768671D-03 -0.49870381D-03 -0.44938781D-03 -0.10321826D-07  0.42152088D-03
 -0.77393378D-04  0.40332613D-03  0.14132824D-03 -0.20076464D-07 -0.11516766D-06
 -0.48018210D-04 -0.81447972D-04 -0.92725637D-04  0.47758512D-04 -0.51381707D-04
 -0.87153099D-04 -0.99220723D-04  0.43660429D-04 -0.19835810D-03 -0.33645287D-03
 -0.38303971D-03  0.37625124D-03
MO    6     MO 0.0        OCC NO =    1.0000000  ORB. ENERGY =   -6.476072
  0.24027001D-04  0.44257337D-04  0.71156703D-04  0.91829773D-04  0.77943829D-04
  0.26864232D-04 -0.34719820D-04 -0.12377648D-04  0.43596322D-04 -0.69057864D-04
 -0.50823798D-04 -0.27472038D-04 -0.29376599D-03 -0.21619990D-03 -0.11686360D-03
 -0.13729828D-07 -0.10104598D-07 -0.54618886D-08  0.25399569D-03 -0.15234633D-03
 -0.50017044D-03 -0.10843902D-07  0.18950920D-03  0.20638252D-03  0.12421962D-04
  0.43078310D-03 -0.79587865D-08  0.24196003D-07 -0.20389643D-04 -0.34584694D-04
 -0.39373452D-04  0.49315069D-03  0.40497594D+00  0.74595897D+00  0.11993487D+01
  0.15477940D+01  0.13137460D+01  0.45279758D+00 -0.17455628D-01 -0.62229478D-02
  0.21918351D-01  0.14725893D-02  0.10837662D-02  0.58581351D-03  0.21008975D-03
  0.15461757D-03  0.83576199D-04 -0.17340668D-06 -0.12762031D-06 -0.68983235D-07
 -0.17395685D-02  0.30775286D-04  0.43427820D-05 -0.41381152D-08 -0.64271314D-02
 -0.63359387D-02 -0.69744437D-02 -0.25527363D-04 -0.12431254D-06  0.68141987D-07
 -0.17955989D-03 -0.30456756D-03 -0.34673940D-03  0.33093037D-03  0.24355187D-04
  0.44861850D-04  0.72128635D-04  0.93084081D-04  0.79008467D-04  0.27231172D-04
 -0.34919785D-04 -0.12448936D-04  0.43847410D-04 -0.14742322D-03 -0.10849753D-03
 -0.58646708D-04  0.26331451D-03  0.19378884D-03  0.10474964D-03  0.22631969D-07
  0.16656215D-07  0.90032662D-08  0.25376122D-03 -0.28435815D-03  0.43812630D-03
  0.61445020D-07  0.30502034D-03  0.90552692D-04  0.12470376D-04 -0.37383296D-03
 -0.58591772D-07  0.23210652D-08  0.12565416D-03  0.23140264D-03  0.37388362D-03
  0.48933328D-03  0.41915781D-03  0.14419514D-03 -0.35150357D-03 -0.17376608D-03
  0.45838379D-03 -0.25459600D-03 -0.19820705D-03 -0.94115718D-04 -0.35956401D-04
 -0.27992633D-04 -0.13291892D-04  0.80977833D-07  0.63042536D-07  0.29934826D-07
 -0.13546742D-02  0.46436460D-03  0.65478526D-04 -0.66575475D-07  0.44570528D-03
  0.43092926D-03  0.36451903D-03  0.42733244D-05  0.88148947D-08  0.13396154D-07
 -0.10027118D-03 -0.18465776D-03 -0.29835663D-03 -0.39048469D-03 -0.33448514D-03
 -0.11506676D-03 -0.26965536D-03 -0.13330435D-03  0.35164834D-03 -0.77279431D-04
 -0.60163271D-04 -0.28567649D-04 -0.58966303D-03 -0.45906209D-03 -0.21797892D-03
  0.41247196D-08  0.32111601D-08  0.15247724D-08 -0.98278701D-03 -0.13219072D-03
  0.74414687D-03  0.20345833D-07  0.12984316D-04  0.27884502D-03  0.42768504D-03
  0.26082176D-03  0.43698505D-07 -0.49238090D-09 -0.53340161D-04 -0.90475008D-04
 -0.10300260D-03  0.34897784D-04 -0.10035148D-03 -0.18480564D-03 -0.29859557D-03
 -0.39079741D-03 -0.33475301D-03 -0.11515891D-03 -0.26923248D-03 -0.13309530D-03
  0.35109687D-03 -0.23781288D-03 -0.18514113D-03 -0.87911556D-04  0.54525796D-03
  0.42449203D-03  0.20156383D-03  0.88398627D-07  0.68819743D-07  0.32678048D-07
 -0.98167230D-03  0.78718404D-04 -0.75080281D-03 -0.81579132D-07  0.10303284D-03
  0.18928752D-03  0.42729251D-03 -0.36372875D-03  0.84738357D-08 -0.36368677D-07
 -0.53221816D-04 -0.90274273D-04 -0.10277407D-03  0.35090934D-04 -0.33126004D-04
 -0.56187973D-04 -0.63968021D-04 -0.23686658D-04 -0.20353567D-04 -0.34523503D-04
 -0.39303787D-04  0.49255537D-03
MO    7     MO 0.0        OCC NO =    1.0000000  ORB. ENERGY =   -0.670804
 -0.29341423D-01 -0.54046415D-01 -0.86895528D-01 -0.11214118D+00 -0.95183867D-01
 -0.32806209D-01 -0.30042936D-01 -0.10710335D-01  0.37723741D-01 -0.92059945D-02
 -0.67752399D-02 -0.36622539D-02 -0.48177938D-01 -0.35457016D-01 -0.19165756D-01
 -0.36161379D-05 -0.26613314D-05 -0.14385426D-05  0.40310516D-02  0.41650840D-03
  0.11905036D-02  0.10956665D-06  0.73649779D-02  0.43061073D-02 -0.65133580D-02
 -0.66655269D-02 -0.26231994D-05  0.21060263D-05  0.31026170D-02  0.52626256D-02
  0.59913132D-02 -0.14149743D-03 -0.24240130D-01 -0.44649917D-01 -0.71787890D-01
 -0.92644339D-01 -0.78635221D-01 -0.27102529D-01 -0.24010086D-01 -0.85596180D-02
  0.30148527D-01  0.40985039D-01  0.30163333D-01  0.16304335D-01  0.58660835D-02
  0.43172004D-02  0.23335977D-02 -0.46968265D-05 -0.34566745D-05 -0.18684534D-05
  0.35613384D-02 -0.97558532D-03 -0.13834557D-03  0.13283660D-06  0.25282029D-02
  0.74783905D-02 -0.48465486D-02 -0.14008443D-02 -0.16667369D-05  0.14395758D-05
  0.22638570D-02  0.38399300D-02  0.43716246D-02 -0.26712679D-03 -0.29295299D-01
 -0.53961454D-01 -0.86758928D-01 -0.11196489D+00 -0.95034238D-01 -0.32754637D-01
 -0.29992476D-01 -0.10692346D-01  0.37660381D-01 -0.22069196D-01 -0.16242036D-01
 -0.87793882D-02  0.43763831D-01  0.32208412D-01  0.17409772D-01  0.30817520D-05
  0.22680450D-05  0.12259576D-05  0.40212086D-02  0.73171929D-03 -0.10326100D-02
 -0.61935423D-07  0.53337942D-02  0.63157804D-02 -0.64963125D-02  0.72654619D-02
 -0.15027674D-05  0.66136428D-06 -0.90483646D-01 -0.16663319D+00 -0.26923384D+00
 -0.35236923D+00 -0.30183582D+00 -0.10383502D+00 -0.14053344D+00 -0.69472825D-01
  0.18326486D+00 -0.58059919D-02 -0.45200574D-02 -0.21462832D-02 -0.74908687D-03
 -0.58317609D-03 -0.27691264D-03  0.75658684D-06  0.58901494D-06  0.27968513D-06
  0.59695592D-01  0.14300437D-02  0.21022552D-03 -0.18998513D-06  0.84366135D-02
 -0.12000137D-02 -0.98008459D-02  0.27627234D-02 -0.41569728D-05  0.55799603D-06
 -0.69963254D-01 -0.12884318D+00 -0.20817547D+00 -0.27245694D+00 -0.23338379D+00
 -0.80286728D-01 -0.10862531D+00 -0.53699013D-01  0.14165456D+00  0.17074411D-01
  0.13292702D-01  0.63118451D-02 -0.76476593D-02 -0.59538249D-02 -0.28270867D-02
  0.77196636D-06  0.60098814D-06  0.28537042D-06  0.46081478D-01  0.47553872D-03
  0.75933717D-03 -0.32286926D-08  0.25656399D-02  0.36839875D-02 -0.88066774D-02
 -0.85202127D-02 -0.18360655D-05  0.14767800D-05  0.13964836D-01  0.23687006D-01
  0.26966819D-01  0.67737953D-03 -0.69774551D-01 -0.12849566D+00 -0.20761399D+00
 -0.27172208D+00 -0.23275431D+00 -0.80070180D-01 -0.10832818D+00 -0.53552127D-01
  0.14126708D+00  0.14244738D-01  0.11089756D-01  0.52658086D-02  0.12220412D-01
  0.95137856D-02  0.45174819D-02  0.50928780D-06  0.39648869D-06  0.18826685D-06
  0.45960837D-01  0.66261898D-03 -0.58391587D-03 -0.14679344D-06  0.38831575D-03
  0.58560481D-02 -0.87916538D-02  0.66100935D-02 -0.80804176D-06  0.19954074D-05
  0.13919948D-01  0.23610867D-01  0.26880138D-01  0.67199556D-03  0.18615061D-01
  0.31574668D-01  0.35946643D-01  0.12287160D-02  0.30937940D-02  0.52476602D-02
  0.59742756D-02 -0.14913495D-03
MO    8     MO 0.0        OCC NO =    1.0000000  ORB. ENERGY =   -0.622766
 -0.66851072D-02 -0.12313857D-01 -0.19798151D-01 -0.25550083D-01 -0.21686554D-01
 -0.74745189D-02 -0.76448794D-02 -0.27254066D-02  0.95993766D-02  0.75369589D-01
  0.55468972D-01  0.29982918D-01 -0.39254619D-01 -0.28889814D-01 -0.15615954D-01
 -0.86943873D-05 -0.63987177D-05 -0.34587305D-05 -0.30959846D-04 -0.10520079D-03
  0.80484279D-03  0.67764903D-07 -0.56755764D-02  0.80802427D-02 -0.16095863D-02
 -0.18845143D-01 -0.12467961D-05  0.30010939D-05  0.10024716D-02  0.17003816D-02
  0.19358243D-02 -0.10772678D-03  0.23618157D-01  0.43504253D-01  0.69945898D-01
  0.90267195D-01  0.76617534D-01  0.26407110D-01  0.24752704D-01  0.88243620D-02
 -0.31081004D-01 -0.33702890D-01 -0.24803965D-01 -0.13407410D-01 -0.54498342D-02
 -0.40108577D-02 -0.21680088D-02  0.41694702D-05  0.30685616D-05  0.16586647D-05
 -0.18365247D-02  0.18279035D-02  0.26260525D-03 -0.20305976D-06 -0.27562421D-03
 -0.80298085D-02  0.40717548D-02  0.20263460D-02  0.11291278D-05 -0.14758848D-05
 -0.28844350D-02 -0.48925478D-02 -0.55699927D-02  0.52332890D-03 -0.69687696D-02
 -0.12836358D-01 -0.20638226D-01 -0.26634224D-01 -0.22606757D-01 -0.77916776D-02
 -0.79506405D-02 -0.28344107D-02  0.99833088D-02  0.60710996D-01  0.44680840D-01
  0.24151555D-01  0.58393217D-01  0.42975048D-01  0.23229515D-01 -0.19812599D-05
 -0.14581272D-05 -0.78816872D-06 -0.79825644D-05  0.13771688D-03 -0.82059999D-03
 -0.48559329D-07 -0.94714231D-02  0.11973345D-01 -0.16621260D-02  0.86992846D-02
  0.12338066D-05  0.41775304D-06 -0.10470151D+00 -0.19281659D+00 -0.31153907D+00
 -0.40773768D+00 -0.34926386D+00 -0.12015082D+00 -0.16443882D+00 -0.81290470D-01
  0.21443905D+00  0.10017772D+00  0.77989957D-01  0.37032390D-01  0.13894297D-01
  0.10816932D-01  0.51362620D-02 -0.81103173D-05 -0.63140115D-05 -0.29981160D-05
  0.69969182D-01  0.66184344D-02  0.91739358D-03 -0.56667409D-06  0.77753533D-02