 Generated by Multiwfn
GAUSSIAN             41 MOL ORBITALS    192 PRIMITIVES       12 NUCLEI
  B    1    (CENTRE  1)   1.02499004  2.54011114  0.00010490  CHARGE =  5.0
  H    2    (CENTRE  2)   1.86730431  4.62867728  0.00010136  CHARGE =  1.0
  B    3    (CENTRE  3)  -2.71334917 -0.38272304  0.00025096  CHARGE =  5.0
  H    4    (CENTRE  4)  -4.94299310 -0.69711957  0.00035975  CHARGE =  1.0
  B    5    (CENTRE  5)   1.68770587 -2.15749468 -0.00022669  CHARGE =  5.0
  N    6    (CENTRE  6)   2.63365857  0.37142357 -0.00020422  CHARGE =  7.0
  N    7    (CENTRE  7)  -1.63847038  2.09445213  0.00022835  CHARGE =  7.0
  H    8    (CENTRE  8)  -2.80861809  3.59359322  0.00037345  CHARGE =  1.0
  N    9    (CENTRE  9)  -0.99498885 -2.46579102 -0.00007332  CHARGE =  7.0
  H   10    (CENTRE 10)  -1.70513774 -4.23001704 -0.00016696  CHARGE =  1.0
  H   11    (CENTRE 11)   4.51680796  0.63691139 -0.00040924  CHARGE =  1.0
  H   12    (CENTRE 12)   3.07450768 -3.93210506 -0.00055989  CHARGE =  1.0
CENTRE ASSIGNMENTS    1  1  1  1  1  1  1  1  1  1  1  1  1  1  1  1  1  1  1  1
CENTRE ASSIGNMENTS    1  1  1  1  1  1  1  1  2  2  2  2  3  3  3  3  3  3  3  3
CENTRE ASSIGNMENTS    3  3  3  3  3  3  3  3  3  3  3  3  3  3  3  3  3  3  3  3
CENTRE ASSIGNMENTS    4  4  4  4  5  5  5  5  5  5  5  5  5  5  5  5  5  5  5  5
CENTRE ASSIGNMENTS    5  5  5  5  5  5  5  5  5  5  5  5  6  6  6  6  6  6  6  6
CENTRE ASSIGNMENTS    6  6  6  6  6  6  6  6  6  6  6  6  6  6  6  6  6  6  6  6
CENTRE ASSIGNMENTS    7  7  7  7  7  7  7  7  7  7  7  7  7  7  7  7  7  7  7  7
CENTRE ASSIGNMENTS    7  7  7  7  7  7  7  7  8  8  8  8  9  9  9  9  9  9  9  9
CENTRE ASSIGNMENTS    9  9  9  9  9  9  9  9  9  9  9  9  9  9  9  9  9  9  9  9
CENTRE ASSIGNMENTS   10 10 10 10 11 11 11 11 12 12 12 12
TYPE ASSIGNMENTS      1  1  1  1  1  1  1  1  1  2  2  2  3  3  3  4  4  4  1  2
TYPE ASSIGNMENTS      3  4  5  6  7  8  9 10  1  1  1  1  1  1  1  1  1  1  1  1
TYPE ASSIGNMENTS      1  2  2  2  3  3  3  4  4  4  1  2  3  4  5  6  7  8  9 10
TYPE ASSIGNMENTS      1  1  1  1  1  1  1  1  1  1  1  1  1  2  2  2  3  3  3  4
TYPE ASSIGNMENTS      4  4  1  2  3  4  5  6  7  8  9 10  1  1  1  1  1  1  1  1
TYPE ASSIGNMENTS      1  2  2  2  3  3  3  4  4  4  1  2  3  4  5  6  7  8  9 10
TYPE ASSIGNMENTS      1  1  1  1  1  1  1  1  1  2  2  2  3  3  3  4  4  4  1  2
TYPE ASSIGNMENTS      3  4  5  6  7  8  9 10  1  1  1  1  1  1  1  1  1  1  1  1
TYPE ASSIGNMENTS      1  2  2  2  3  3  3  4  4  4  1  2  3  4  5  6  7  8  9 10
TYPE ASSIGNMENTS      1  1  1  1  1  1  1  1  1  1  1  1
EXPONENTS  0.2068882D+04 0.3106496D+03 0.7068303D+02 0.1986108D+02 0.6299305D+01
EXPONENTS  0.2127027D+01 0.4727971D+01 0.1190338D+01 0.3594117D+00 0.4727971D+01
EXPONENTS  0.1190338D+01 0.3594117D+00 0.4727971D+01 0.1190338D+01 0.3594117D+00
EXPONENTS  0.4727971D+01 0.1190338D+01 0.3594117D+00 0.1267512D+00 0.1267512D+00
EXPONENTS  0.1267512D+00 0.1267512D+00 0.6000000D+00 0.6000000D+00 0.6000000D+00
EXPONENTS  0.6000000D+00 0.6000000D+00 0.6000000D+00 0.1873114D+02 0.2825394D+01
EXPONENTS  0.6401217D+00 0.1612778D+00 0.2068882D+04 0.3106496D+03 0.7068303D+02
EXPONENTS  0.1986108D+02 0.6299305D+01 0.2127027D+01 0.4727971D+01 0.1190338D+01
EXPONENTS  0.3594117D+00 0.4727971D+01 0.1190338D+01 0.3594117D+00 0.4727971D+01
EXPONENTS  0.1190338D+01 0.3594117D+00 0.4727971D+01 0.1190338D+01 0.3594117D+00
EXPONENTS  0.1267512D+00 0.1267512D+00 0.1267512D+00 0.1267512D+00 0.6000000D+00
EXPONENTS  0.6000000D+00 0.6000000D+00 0.6000000D+00 0.6000000D+00 0.6000000D+00
EXPONENTS  0.1873114D+02 0.2825394D+01 0.6401217D+00 0.1612778D+00 0.2068882D+04
EXPONENTS  0.3106496D+03 0.7068303D+02 0.1986108D+02 0.6299305D+01 0.2127027D+01
EXPONENTS  0.4727971D+01 0.1190338D+01 0.3594117D+00 0.4727971D+01 0.1190338D+01
EXPONENTS  0.3594117D+00 0.4727971D+01 0.1190338D+01 0.3594117D+00 0.4727971D+01
EXPONENTS  0.1190338D+01 0.3594117D+00 0.1267512D+00 0.1267512D+00 0.1267512D+00
EXPONENTS  0.1267512D+00 0.6000000D+00 0.6000000D+00 0.6000000D+00 0.6000000D+00
EXPONENTS  0.6000000D+00 0.6000000D+00 0.4173511D+04 0.6274579D+03 0.1429021D+03
EXPONENTS  0.4023433D+02 0.1282021D+02 0.4390437D+01 0.1162636D+02 0.2716280D+01
EXPONENTS  0.7722184D+00 0.1162636D+02 0.2716280D+01 0.7722184D+00 0.1162636D+02
EXPONENTS  0.2716280D+01 0.7722184D+00 0.1162636D+02 0.2716280D+01 0.7722184D+00
EXPONENTS  0.2120315D+00 0.2120315D+00 0.2120315D+00 0.2120315D+00 0.8000000D+00
EXPONENTS  0.8000000D+00 0.8000000D+00 0.8000000D+00 0.8000000D+00 0.8000000D+00
EXPONENTS  0.4173511D+04 0.6274579D+03 0.1429021D+03 0.4023433D+02 0.1282021D+02
EXPONENTS  0.4390437D+01 0.1162636D+02 0.2716280D+01 0.7722184D+00 0.1162636D+02
EXPONENTS  0.2716280D+01 0.7722184D+00 0.1162636D+02 0.2716280D+01 0.7722184D+00
EXPONENTS  0.1162636D+02 0.2716280D+01 0.7722184D+00 0.2120315D+00 0.2120315D+00
EXPONENTS  0.2120315D+00 0.2120315D+00 0.8000000D+00 0.8000000D+00 0.8000000D+00
EXPONENTS  0.8000000D+00 0.8000000D+00 0.8000000D+00 0.1873114D+02 0.2825394D+01
EXPONENTS  0.6401217D+00 0.1612778D+00 0.4173511D+04 0.6274579D+03 0.1429021D+03
EXPONENTS  0.4023433D+02 0.1282021D+02 0.4390437D+01 0.1162636D+02 0.2716280D+01
EXPONENTS  0.7722184D+00 0.1162636D+02 0.2716280D+01 0.7722184D+00 0.1162636D+02
EXPONENTS  0.2716280D+01 0.7722184D+00 0.1162636D+02 0.2716280D+01 0.7722184D+00
EXPONENTS  0.2120315D+00 0.2120315D+00 0.2120315D+00 0.2120315D+00 0.8000000D+00
EXPONENTS  0.8000000D+00 0.8000000D+00 0.8000000D+00 0.8000000D+00 0.8000000D+00
EXPONENTS  0.1873114D+02 0.2825394D+01 0.6401217D+00 0.1612778D+00 0.1873114D+02
EXPONENTS  0.2825394D+01 0.6401217D+00 0.1612778D+00 0.1873114D+02 0.2825394D+01
EXPONENTS  0.6401217D+00 0.1612778D+00
MO    1     MO 0.0        OCC NO =    1.0000000  ORB. ENERGY =  -14.627928
  0.35627907D-05  0.65626014D-05  0.10551314D-04  0.13616775D-04  0.11557728D-04
  0.39835033D-05 -0.59955657D-04 -0.21374247D-04  0.75283977D-04 -0.35493096D-03
 -0.26121484D-03 -0.14119575D-03 -0.87336282D-04 -0.64275975D-04 -0.34743410D-04
  0.13995173D-07  0.10299882D-07  0.55674461D-08 -0.96435281D-04  0.41106967D-04
  0.54077596D-05 -0.14573733D-08  0.24886887D-03 -0.15592609D-04 -0.44044586D-04
  0.66286856D-04 -0.28153634D-07 -0.80059651D-09  0.33551566D-05  0.56909807D-05
  0.64789804D-05  0.43997538D-05  0.35654544D-05  0.65675079D-05  0.10559203D-04
  0.13626956D-04  0.11566369D-04  0.39864816D-05 -0.59913824D-04 -0.21359334D-04
  0.75231449D-04  0.17040765D-03  0.12541314D-03  0.67790186D-04  0.32343806D-03
  0.23803735D-03  0.12866750D-03 -0.66560498D-08 -0.48985837D-08 -0.26478557D-08
 -0.96600711D-04 -0.15112369D-04 -0.38674419D-04  0.74321201D-09  0.15372171D-04
  0.21803338D-03 -0.44029147D-04  0.18248106D-03 -0.53296782D-08 -0.15366259D-08
  0.33676320D-05  0.57121413D-05  0.65030710D-05  0.44630839D-05 -0.47680804D-06
 -0.87827250D-06 -0.14120817D-05 -0.18223321D-05 -0.15467700D-05 -0.53311197D-06
 -0.18942160D-05 -0.67528977D-06  0.23784931D-05 -0.71663732D-05 -0.52741611D-05
 -0.28508684D-05  0.92232072D-05  0.67879078D-05  0.36691014D-05  0.57473707D-09
  0.42298326D-09  0.22863723D-09  0.14314028D-04 -0.88692837D-05  0.11349704D-04
  0.20247764D-08 -0.39649285D-05 -0.45401092D-05 -0.31467536D-05  0.23858747D-05
  0.40257210D-09 -0.41601656D-09 -0.77067961D-05 -0.14192709D-04 -0.22931551D-04
 -0.30012471D-04 -0.25708371D-04 -0.88439775D-05 -0.27485223D-04 -0.13587343D-04
  0.35842540D-04 -0.13586963D-05 -0.10577668D-05 -0.50226509D-06 -0.65233228D-06
 -0.50785109D-06 -0.24114566D-06  0.22675146D-08  0.17652964D-08  0.83822515D-09
 -0.13285730D-04  0.19077998D-04 -0.62311629D-05 -0.35054049D-08 -0.59732019D-04
 -0.23088727D-04  0.25796802D-04  0.37940129D-04  0.15338519D-07 -0.12501226D-07
  0.67383822D+00  0.12409294D+01  0.20050038D+01  0.26241190D+01  0.22477931D+01
  0.77326687D+00 -0.18320818D-01 -0.90569120D-02  0.23891553D-01 -0.47838573D-03
 -0.37243093D-03 -0.17684338D-03  0.61471659D-03  0.47856668D-03  0.22724039D-03
  0.45189928D-07  0.35181081D-07  0.16705222D-07  0.11109241D-02  0.63091604D-05
 -0.83545249D-05 -0.95543446D-09 -0.10085474D-01 -0.10024595D-01 -0.95800668D-02
 -0.24492404D-03  0.47208413D-07 -0.34754201D-09  0.73723796D-04  0.12504951D-03
  0.14236445D-03 -0.88271735D-04 -0.79312396D-05 -0.14606040D-04 -0.23599382D-04
 -0.30886518D-04 -0.26457071D-04 -0.91015389D-05 -0.27498242D-04 -0.13593779D-04
  0.35859519D-04  0.87310210D-06  0.67972393D-06  0.32275696D-06  0.10266065D-05
  0.79922953D-06  0.37950245D-06  0.20568237D-08  0.16012701D-08  0.76033970D-09
 -0.13300224D-04  0.14902076D-05 -0.20018871D-04 -0.28634710D-08 -0.16290206D-04
 -0.66640770D-04  0.25752939D-04  0.16353922D-04  0.12288901D-07 -0.12192586D-07
  0.24488757D-05  0.41537566D-05  0.47289051D-05 -0.14026382D-04  0.24330014D-05
  0.41268309D-05  0.46982511D-05 -0.14016181D-04  0.62405884D-06  0.10585219D-05
  0.12050898D-05  0.10908206D-04
MO    2     MO 0.0        OCC NO =    1.0000000  ORB. ENERGY =  -14.557706
  0.85308699D-06  0.15713721D-05  0.25264434D-05  0.32604479D-05  0.27674226D-05
  0.95382387D-06 -0.71512299D-05 -0.25494201D-05  0.89795202D-05 -0.61554823D-05
 -0.45301863D-05 -0.24487240D-05 -0.14850983D-04 -0.10929724D-04 -0.59078975D-05
 -0.51627501D-09 -0.37995755D-09 -0.20538033D-09  0.84810890D-05 -0.27288821D-05
 -0.72210739D-05  0.41349336D-10 -0.30502819D-05 -0.38591104D-05  0.83700119D-06
 -0.38125457D-06  0.82954584D-09 -0.34399184D-09  0.64471656D-06  0.10935613D-05
  0.12449809D-05  0.52415348D-05  0.29509001D-05  0.54355090D-05  0.87391815D-05
  0.11278165D-04  0.95727492D-05  0.32993575D-05 -0.56474353D-04 -0.20133159D-04
  0.70912639D-04  0.22927088D-03  0.16873411D-03  0.91206680D-04 -0.23860842D-03
 -0.17560616D-03 -0.94921264D-04 -0.40702652D-07 -0.29955507D-07 -0.16191998D-07
 -0.84077404D-04 -0.15044495D-04  0.31751040D-04  0.46368623D-08  0.66097624D-04
  0.12879895D-03 -0.39424469D-04 -0.22961144D-03 -0.38632800D-07  0.46638585D-07
  0.32298042D-05  0.54783592D-05  0.62369183D-05  0.11385496D-04  0.30837661D-05
  0.56802459D-05  0.91326681D-05  0.11785971D-04  0.10003768D-04  0.34479130D-05
 -0.59471436D-04 -0.21201622D-04  0.74675960D-04 -0.32590227D-03 -0.23985090D-03
 -0.12964779D-03 -0.13571375D-04 -0.99879838D-05 -0.53988543D-05  0.19511904D-07
  0.14359973D-07  0.77620670D-08 -0.82046660D-04  0.32345795D-04  0.10351355D-04
 -0.57958463D-09  0.19888888D-03 -0.16750057D-04 -0.40054104D-04  0.68512592D-04
 -0.24425403D-07 -0.20483378D-08 -0.44918954D-03 -0.82722006D-03 -0.13365623D-02
 -0.17492727D-02 -0.14984088D-02 -0.51546999D-03 -0.13754992D-04 -0.67997916D-05
  0.17937415D-04 -0.30653043D-05 -0.23863883D-05 -0.11331416D-05  0.33763009D-05
  0.26285041D-05  0.12481067D-05  0.26664029D-08  0.20758372D-08  0.98568094D-09
 -0.14847475D-04  0.18573630D-04  0.97645139D-05 -0.23916418D-08 -0.36474784D-04
 -0.22410345D-04  0.28648634D-04 -0.52246244D-04  0.65093589D-08  0.67578390D-09
  0.12225745D-04  0.22514732D-04  0.36377672D-04  0.47610553D-04  0.40782706D-04
  0.14029723D-04 -0.27197174D-04 -0.13444946D-04  0.35466905D-04  0.33319348D-05
  0.25939645D-05  0.12317061D-05 -0.11651980D-05 -0.90712528D-06 -0.43073517D-06
  0.17578012D-08  0.13684763D-08  0.64980096D-09 -0.16875991D-04 -0.57566110D-05
  0.21025068D-04  0.19310937D-09 -0.10221352D-04 -0.60782613D-04  0.24073700D-04
  0.14730046D-04  0.95736503D-08 -0.93677448D-08  0.16719376D-05  0.28359227D-05
  0.32285977D-05 -0.13401407D-04  0.67391866D+00  0.12410775D+01  0.20052431D+01
  0.26244322D+01  0.22480614D+01  0.77335917D+00 -0.18097960D-01 -0.89467418D-02
  0.23600932D-01 -0.15548987D-03 -0.12105134D-03 -0.57479460D-04 -0.60301877D-03
 -0.46945975D-03 -0.22291609D-03  0.95769823D-08  0.74558337D-08  0.35402936D-08
  0.10304005D-02 -0.48173724D-05 -0.78520919D-06 -0.26927157D-08 -0.97870759D-02
 -0.96326194D-02 -0.94879933D-02  0.16003398D-03  0.63164967D-07 -0.46959854D-07
  0.64478814D-04  0.10936827D-03  0.12451191D-03 -0.84237875D-04  0.15047533D-05
  0.25523465D-05  0.29057563D-05 -0.13224190D-04  0.29696030D-05  0.50370088D-05
  0.57344565D-05  0.95216812D-05
MO    3     MO 0.0        OCC NO =    1.0000000  ORB. ENERGY =  -14.555946
  0.29526092D-05  0.54386571D-05  0.87442429D-05  0.11284697D-04  0.95782933D-05
  0.33012684D-05 -0.56508980D-04 -0.20145504D-04  0.70956119D-04  0.17597746D-03
  0.12951230D-03  0.70005925D-04 -0.27915866D-03 -0.20544949D-03 -0.11105263D-03
 -0.36978084D-07 -0.27214376D-07 -0.14710321D-07 -0.83651956D-04 -0.27222531D-04
  0.21950015D-04  0.46835571D-08  0.71023483D-04  0.12257281D-03 -0.39330113D-04
 -0.23120762D-03 -0.36347241D-07  0.45743100D-07  0.32140925D-05  0.54517092D-05
  0.62065782D-05  0.11565707D-04  0.89858846D-06  0.16551850D-05  0.26611974D-05
  0.34343518D-05  0.29150298D-05  0.10046984D-05 -0.73239986D-05 -0.26110123D-05
  0.91964590D-05  0.16385496D-04  0.12059063D-04  0.65183450D-05  0.21433515D-05
  0.15774201D-05  0.85265067D-06 -0.15522498D-08 -0.11423931D-08 -0.61750339D-09
  0.82335335D-05  0.75209964D-05  0.93207921D-06 -0.37952839D-09 -0.36050781D-05
 -0.27732370D-05  0.91783672D-06 -0.20390755D-06  0.23897369D-09 -0.55506204D-09
  0.63832280D-06  0.10827163D-05  0.12326342D-05  0.51601562D-05  0.30936452D-05
  0.56984432D-05  0.91619255D-05  0.11823729D-04  0.10035816D-04  0.34589587D-05
 -0.59562849D-04 -0.21234211D-04  0.74790743D-04  0.91068446D-04  0.67022696D-04
  0.36228109D-04  0.31219298D-03  0.22976142D-03  0.12419408D-03  0.46782539D-08
  0.34430058D-08  0.18610650D-08 -0.81844111D-04 -0.17921417D-04 -0.28642717D-04
  0.10273559D-08  0.11840110D-04  0.16933798D-03 -0.39994204D-04  0.16071015D-03
 -0.21291295D-08  0.13380744D-08  0.67392076D+00  0.12410814D+01  0.20052494D+01
  0.26244404D+01  0.22480684D+01  0.77336158D+00 -0.18092136D-01 -0.89438624D-02
  0.23593336D-01  0.61845372D-03  0.48147610D-03  0.22862188D-03  0.63413039D-05
  0.49368063D-05  0.23441703D-05 -0.33394935D-07 -0.25998491D-07 -0.12345003D-07
  0.10283025D-02  0.23890220D-05  0.44686789D-05 -0.23450351D-08 -0.95956840D-02
 -0.98060668D-02 -0.94857299D-02  0.68966508D-04  0.35784315D-07 -0.49642614D-07
  0.12045073D-04  0.22182008D-04  0.35840081D-04  0.46906962D-04  0.40180017D-04
  0.13822391D-04 -0.27210498D-04 -0.13451533D-04  0.35484281D-04  0.43619305D-06
  0.33958325D-06  0.16124614D-06 -0.37040361D-05 -0.28836513D-05 -0.13692596D-05
  0.14892794D-08  0.11594278D-08  0.55053733D-09 -0.17080618D-04 -0.19054556D-04
  0.10805030D-04  0.91824163D-09 -0.54105158D-04 -0.16485619D-04  0.24123478D-04
  0.36552793D-04  0.12853222D-07 -0.97453777D-08  0.16337576D-05  0.27711621D-05
  0.31548701D-05 -0.13417911D-04  0.45332632D-03  0.83483829D-03  0.13488712D-02
  0.17653825D-02  0.15122083D-02  0.52021718D-03 -0.37973177D-04 -0.18772072D-04
  0.49519523D-04 -0.27689902D-05 -0.21557031D-05 -0.10236041D-05  0.30297744D-05
  0.23587277D-05  0.11200074D-05  0.22086993D-08  0.17195076D-08  0.81648305D-09
 -0.13620697D-04 -0.13961001D-04 -0.15764416D-04 -0.97685882D-09 -0.48339084D-04
 -0.36182966D-04  0.15895454D-04 -0.52568073D-04  0.55871774D-08 -0.30350495D-09
  0.15661849D-05  0.26565459D-05  0.30243837D-05 -0.13333971D-04  0.64223087D-04
  0.10893451D-03  0.12401809D-03 -0.84191251D-04  0.29737083D-05  0.50439721D-05
  0.57423839D-05  0.97078925D-05
MO    4     MO 0.0        OCC NO =    1.0000000  ORB. ENERGY =   -6.981029
  0.61273109D-02  0.11286405D-01  0.18146220D-01  0.23418219D-01  0.19877057D-01
  0.68508552D-02 -0.26955228D-03 -0.96095638D-04  0.33846627D-03 -0.11451706D-03
 -0.84279928D-04 -0.45556246D-04 -0.34522314D-03 -0.25407028D-03 -0.13733386D-03
 -0.14963625D-07 -0.11012623D-07 -0.59527077D-08  0.24637698D-03 -0.15377220D-03
 -0.55993706D-03 -0.11932128D-07  0.14468841D-03  0.14157627D-03 -0.91834143D-04
  0.47702830D-03 -0.15263907D-07  0.25518854D-07 -0.23802221D-04 -0.40373072D-04
 -0.45963315D-04  0.55169710D-03  0.40503320D+00  0.74606444D+00  0.11995183D+01
  0.15480129D+01  0.13139317D+01  0.45286160D+00 -0.16959895D-01 -0.60462183D-02
  0.21295878D-01  0.20423254D-02  0.15030690D-02  0.81246129D-03  0.88468064D-03
  0.65108920D-03  0.35193647D-03 -0.11138235D-06 -0.81972906D-07 -0.44309220D-07
 -0.15830639D-02  0.18917145D-04  0.86063501D-05 -0.11166195D-07 -0.59327662D-02
 -0.56967179D-02 -0.69724178D-02  0.16174202D-03 -0.20077784D-06  0.10840502D-06
 -0.15995469D-03 -0.27131342D-03 -0.30888074D-03  0.28727824D-03  0.24434174D-02
  0.45007344D-02  0.72362559D-02  0.93385966D-02  0.79264703D-02  0.27319487D-02
 -0.14536529D-03 -0.51822860D-04  0.18252951D-03 -0.18620029D-03 -0.13703589D-03
 -0.74072689D-04  0.28260506D-03  0.20798590D-03  0.11242365D-03  0.26860256D-07
  0.19768063D-07  0.10685329D-07  0.23089891D-03 -0.28217272D-03  0.42064258D-03
  0.60713523D-07  0.28789948D-03  0.60635020D-04 -0.16540381D-04 -0.39459208D-03
 -0.61235180D-07  0.72438915D-08  0.12527779D-03  0.23070952D-03  0.37276374D-03
  0.48786760D-03  0.41790232D-03  0.14376324D-03 -0.36079328D-03 -0.17835846D-03
  0.47049819D-03 -0.23710137D-03 -0.18458721D-03 -0.87648535D-04 -0.24813229D-04
 -0.19317495D-04 -0.91726300D-05  0.84549458D-07  0.65823104D-07  0.31255138D-07
 -0.14083596D-02  0.47520781D-03  0.41802451D-04 -0.71582460D-07  0.45116123D-03
  0.44634028D-03  0.36656851D-03  0.12618633D-04  0.12035797D-07  0.13585333D-07
 -0.95975071D-04 -0.17674611D-03 -0.28557357D-03 -0.37375441D-03 -0.32015415D-03
 -0.11013674D-03 -0.34529731D-03 -0.17069802D-03  0.45029043D-03  0.65462447D-05
  0.50963561D-05  0.24199301D-05 -0.43980432D-03 -0.34239469D-03 -0.16258111D-03
 -0.46265860D-08 -0.36018711D-08 -0.17102958D-08 -0.11920241D-02 -0.11462968D-03
  0.92884697D-03  0.23038228D-07  0.48592893D-06  0.27963173D-05  0.55289721D-03
  0.16429301D-05  0.60822662D-07  0.21257427D-07 -0.57175400D-04 -0.96980301D-04
 -0.11040864D-03  0.39044243D-05 -0.98923689D-04 -0.18217624D-03 -0.29434717D-03
 -0.38523717D-03 -0.32999016D-03 -0.11352044D-03 -0.27578718D-03 -0.13633563D-03
  0.35964464D-03 -0.19331419D-03 -0.15049818D-03 -0.71461861D-04  0.51978042D-03
  0.40465736D-03  0.19214563D-03  0.76712687D-07  0.59722052D-07  0.28358143D-07
 -0.10125716D-02  0.59114476D-04 -0.77575013D-03 -0.82109701D-07  0.10406566D-03
  0.14784134D-03  0.46842300D-03 -0.36740376D-03  0.25441573D-07 -0.66395082D-07
 -0.51646047D-04 -0.87601471D-04 -0.99731178D-04  0.12061498D-04 -0.31118360D-04
 -0.52782628D-04 -0.60091157D-04 -0.19422368D-04 -0.22350307D-04 -0.37910351D-04
 -0.43159594D-04  0.48159687D-03
MO    5     MO 0.0        OCC NO =    1.0000000  ORB. ENERGY =   -6.980756
  0.40502359D+00  0.74604673D+00  0.11994898D+01  0.15479762D+01  0.13139005D+01
  0.45285085D+00 -0.16960459D-01 -0.60464195D-02  0.21296586D-01 -0.13601409D-02
 -0.10010087D-02 -0.54108019D-03 -0.17521306D-02 -0.12894973D-02 -0.69701836D-03
  0.22070025D-07  0.16242647D-07  0.87797182D-08 -0.15920534D-02 -0.87906626D-05
  0.19377158D-06 -0.91419294D-08 -0.56793079D-02 -0.59666257D-02 -0.69721418D-02
  0.20383520D-04 -0.17933130D-06  0.13845540D-06 -0.15933668D-03 -0.27026517D-03
 -0.30768734D-03  0.27157001D-03 -0.61050692D-02 -0.11245436D-01 -0.18080350D-01
 -0.23333213D-01 -0.19804905D-01 -0.68259870D-02  0.24307079D-03  0.86654964D-04
 -0.30521450D-03  0.30221085D-03  0.22241497D-03  0.12022306D-03  0.83737166D-06
  0.61627171D-06  0.33311639D-06 -0.32745881D-07 -0.24099645D-07 -0.13026700D-07
  0.29570812D-03  0.58264600D-03  0.14382178D-04 -0.40278188D-07  0.43407769D-03
  0.20544667D-03  0.11860257D-03  0.41706157D-03 -0.69322946D-07 -0.11253994D-07
 -0.19073849D-04 -0.32352857D-04 -0.36832585D-04  0.54564199D-03  0.35917051D-02
  0.66158613D-02  0.10636945D-01  0.13727284D-01  0.11651527D-01  0.40158321D-02
 -0.19273245D-03 -0.68709299D-04  0.24200662D-03 -0.22724282D-03 -0.16724153D-03
 -0.90399893D-04  0.24600443D-03  0.18104932D-03  0.97863484D-04  0.28680710D-07
  0.21107843D-07  0.11409527D-07  0.21995329D-03 -0.33091228D-03  0.36321166D-03
  0.59704712D-07 -0.45005952D-04  0.34714949D-03 -0.36994047D-04 -0.22947460D-03
  0.17566353D-07  0.41651639D-07 -0.10309697D-03 -0.18986168D-03 -0.30676475D-03
 -0.40148912D-03 -0.34391141D-03 -0.11830951D-03 -0.26532242D-03 -0.13116236D-03
  0.34599791D-03 -0.45353299D-03 -0.35308268D-03 -0.16765615D-03  0.31387713D-03
  0.24435836D-03  0.11602999D-03  0.82489525D-07  0.64219412D-07  0.30493649D-07
 -0.97215935D-03  0.72518157D-03 -0.24127892D-03 -0.10162441D-06  0.47044168D-04
  0.18208325D-03  0.45852838D-03 -0.35174237D-03  0.10045185D-06 -0.45379691D-08
 -0.92547908D-04 -0.17043471D-03 -0.27537605D-03 -0.36040805D-03 -0.30872180D-03
 -0.10620388D-03 -0.33685830D-03 -0.16652618D-03  0.43928540D-03  0.42322598D-03
  0.32948819D-03  0.15645265D-03 -0.99110228D-04 -0.77158896D-04 -0.36637773D-04
 -0.20491595D-07 -0.15953034D-07 -0.75750649D-08 -0.11623724D-02 -0.87195732D-03
  0.30730644D-03  0.52230303D-07  0.96894396D-06  0.19086894D-05  0.53877235D-03
 -0.52649882D-06  0.18425282D-07 -0.12970481D-07 -0.54939338D-04 -0.93187516D-04
 -0.10609069D-03  0.43817672D-05  0.12806960D-03  0.23585087D-03  0.38107075D-03
  0.49873970D-03  0.42721525D-03  0.14696699D-03 -0.35349008D-03 -0.17474812D-03
  0.46097434D-03  0.88338223D-04  0.68772717D-04  0.32655719D-04  0.20977372D-03
  0.16331219D-03  0.77546405D-04  0.70988009D-07  0.55265298D-07  0.26241919D-07
 -0.13818657D-02 -0.15802375D-03 -0.42985687D-03 -0.46670214D-07  0.44711741D-03
  0.44403772D-03  0.35429500D-03  0.25902659D-04 -0.26746915D-07 -0.16684837D-07
 -0.29795323D-04 -0.50538507D-04 -0.57536304D-04 -0.19600784D-04 -0.50703399D-04
 -0.86002562D-04 -0.97910877D-04  0.12599061D-04 -0.22203608D-04 -0.37661521D-04
 -0.42876311D-04  0.46772409D-03
MO    6     MO 0.0        OCC NO =    1.0000000  ORB. ENERGY =   -6.980224
 -0.35787150D-02 -0.65919337D-02 -0.10598475D-01 -0.13677637D-01 -0.11609387D-01
 -0.40013080D-02  0.12224731D-03  0.43581281D-04 -0.15350118D-03 -0.13751814D-03
 -0.10120779D-03 -0.54706348D-04 -0.26738717D-03 -0.19678615D-03 -0.10636979D-03
 -0.10204396D-07 -0.75100235D-08 -0.40594301D-08  0.27004471D-03 -0.24502630D-03
 -0.47356099D-03 -0.33982700D-08  0.34018188D-04  0.49605875D-03  0.79376071D-04
 -0.13815025D-04  0.32441041D-07  0.76171167D-07 -0.19589706D-04 -0.33227850D-04
 -0.37828732D-04  0.50044423D-03 -0.23396688D-02 -0.43096311D-02 -0.69290011D-02
 -0.89420754D-02 -0.75899087D-02 -0.26159489D-02  0.71336893D-04  0.25431669D-04
 -0.89574951D-04  0.29733959D-03  0.21882992D-03  0.11828522D-03  0.73046299D-04
  0.53759125D-04  0.29058685D-04 -0.29399749D-07 -0.21637027D-07 -0.11695569D-07
  0.26413447D-03  0.51810799D-03  0.12476982D-03 -0.31513090D-07  0.44748322D-03
  0.46483515D-04  0.57800290D-04 -0.22863868D-03 -0.11322001D-06 -0.43254253D-08
 -0.20055950D-04 -0.34018687D-04 -0.38729073D-04  0.50123830D-03  0.40505260D+00
  0.74610016D+00  0.11995757D+01  0.15480870D+01  0.13139946D+01  0.45288328D+00
 -0.17008467D-01 -0.60635343D-02  0.21356868D-01 -0.12772695D-02 -0.94001871D-03
 -0.50811296D-03  0.16102373D-02  0.11850696D-02  0.64057154D-03  0.26959115D-06
  0.19840819D-06  0.10724656D-06 -0.16227208D-02  0.17427068D-05 -0.21804098D-05
 -0.93217578D-08 -0.58887552D-02 -0.59350770D-02 -0.69523474D-02  0.16411974D-03
 -0.17425847D-06  0.11611179D-06 -0.98749914D-04 -0.18185622D-03 -0.29383010D-03
 -0.38456044D-03 -0.32941048D-03 -0.11332102D-03 -0.28996280D-03 -0.14334336D-03
  0.37813059D-03 -0.32273746D-03 -0.25125626D-03 -0.11930536D-03 -0.38701900D-03
 -0.30130047D-03 -0.14306812D-03  0.20332976D-07  0.15829547D-07  0.75164288D-08
 -0.10347131D-02  0.65083611D-03  0.49999404D-03 -0.50564573D-07 -0.18715440D-04
  0.15337551D-03  0.48110952D-03  0.13772915D-03  0.14882421D-06 -0.17064068D-07
  0.12901997D-03  0.23760106D-03  0.38389858D-03  0.50244071D-03  0.43038550D-03
  0.14805760D-03 -0.35006097D-03 -0.17305294D-03  0.45650256D-03  0.14094868D-03
  0.10973080D-03  0.52104064D-04 -0.18177668D-03 -0.14151605D-03 -0.67196827D-04
  0.36947595D-07  0.28764293D-07  0.13658304D-07 -0.13688343D-02 -0.27703309D-03
  0.35771083D-03  0.10952956D-07  0.44535871D-03  0.44838613D-03  0.35097400D-03
 -0.13929664D-04 -0.34281139D-07  0.34550753D-07 -0.29859702D-04 -0.50647705D-04
 -0.57660622D-04 -0.19928108D-04 -0.99190178D-04 -0.18266700D-03 -0.29514011D-03
 -0.38627495D-03 -0.33087912D-03 -0.11382625D-03 -0.29113989D-03 -0.14392525D-03
  0.37966558D-03  0.44878838D-03  0.34938892D-03  0.16590222D-03  0.21961606D-03
  0.17097461D-03  0.81184792D-04 -0.76289259D-08 -0.59392407D-08 -0.28201616D-08
 -0.10369731D-02 -0.64524364D-03 -0.51173165D-03 -0.46275371D-08  0.16642756D-03
 -0.39993495D-04  0.48321386D-03  0.37745130D-04  0.69142475D-08 -0.11986378D-06
 -0.52553101D-04 -0.89140005D-04 -0.10148275D-03  0.12064894D-04 -0.52685432D-04
 -0.89364465D-04 -0.10173828D-03  0.11499608D-04 -0.15903701D-03 -0.26975688D-03
 -0.30710867D-03  0.27242153D-03
MO    7     MO 0.0        OCC NO =    1.0000000  ORB. ENERGY =   -1.164211
 -0.28388925D-01 -0.52291929D-01 -0.84074675D-01 -0.10850079D+00 -0.92093954D-01
 -0.31741235D-01 -0.29544500D-01 -0.10532642D-01  0.37097874D-01 -0.55970851D-01
 -0.41192285D-01 -0.22265869D-01 -0.31615845D-01 -0.23267985D-01 -0.12577159D-01
  0.98322710D-06  0.72361541D-06  0.39113942D-06  0.64332357D-03  0.13976194D-02
  0.14283234D-02  0.61091608D-07  0.13150596D-01 -0.10644995D-02 -0.70691037D-02
  0.42268058D-02 -0.23918101D-05  0.50585117D-06  0.24901944D-02  0.42238410D-02
  0.48086937D-02 -0.64443769D-03 -0.28503785D-01 -0.52503499D-01 -0.84414836D-01
 -0.10893978D+00 -0.92466560D-01 -0.31869658D-01 -0.29676990D-01 -0.10579875D-01
  0.37264238D-01  0.44440885D-01  0.32706695D-01  0.17679112D-01  0.46395912D-01
  0.34145517D-01  0.18456845D-01 -0.30249065D-05 -0.22262089D-05 -0.12033437D-05
  0.63203828D-03 -0.17411106D-02 -0.10101046D-02  0.18979565D-06  0.77530783D-03
  0.11348342D-01 -0.70984497D-02  0.10271451D-01 -0.10935175D-05  0.58830828D-06
  0.25018491D-02  0.42436096D-02  0.48311995D-02 -0.65447756D-03 -0.14313731D-01
 -0.26365655D-01 -0.42390555D-01 -0.54706232D-01 -0.46433885D-01 -0.16003970D-01
 -0.14302625D-01 -0.50988991D-02  0.17959248D-01 -0.17444326D-01 -0.12838319D-01
 -0.69395601D-02  0.21777481D-01  0.16027346D-01  0.86633407D-02  0.21944575D-05
  0.16150321D-05  0.87298127D-06  0.20160278D-02  0.93699665D-04 -0.11024380D-03
  0.23361127D-07  0.34740410D-02  0.29939559D-02 -0.36373974D-02  0.14853891D-02
 -0.10405672D-05  0.59445691D-06 -0.39219045D-01 -0.72225148D-01 -0.11669616D+00
 -0.15273019D+00 -0.13082710D+00 -0.45006037D-01 -0.60789437D-01 -0.30051309D-01
  0.79273428D-01 -0.42114895D-01 -0.32787118D-01 -0.15568483D-01  0.35849005D-02
  0.27909023D-02  0.13252191D-02  0.40607629D-05  0.31613687D-05  0.15011297D-05
  0.26701898D-01 -0.19514223D-02  0.68614209D-03  0.16788623D-06  0.44287586D-02
 -0.42293764D-03 -0.38768401D-02 -0.14015642D-02 -0.19190225D-05  0.29453703D-06
 -0.12744797D+00 -0.23470608D+00 -0.37922109D+00 -0.49631888D+00 -0.42514160D+00
 -0.14625364D+00 -0.20525657D+00 -0.10146876D+00  0.26766808D+00 -0.39662615D-02
 -0.30877979D-02 -0.14661957D-02  0.51926463D-02  0.40425581D-02  0.19195496D-02
  0.32307188D-05  0.25151662D-05  0.11942899D-05  0.88533360D-01 -0.66836911D-03
  0.85637966D-03  0.21781518D-06 -0.15799355D-02  0.17240114D-02 -0.50057732D-02
 -0.13028409D-01 -0.12310228D-05  0.17286151D-05  0.24291784D-01  0.41203463D-01
  0.46908686D-01 -0.14750425D-02 -0.39938937D-01 -0.73550890D-01 -0.11883820D+00
 -0.15553366D+00 -0.13322852D+00 -0.45832153D-01 -0.61958549D-01 -0.30629261D-01
  0.80798027D-01  0.65028021D-02  0.50625353D-02  0.24038708D-02  0.41579038D-01
  0.32369945D-01  0.15370395D-01  0.28185405D-05  0.21942788D-05  0.10419212D-05
  0.27210432D-01 -0.20488247D-03  0.20520936D-02  0.13163345D-06 -0.51670459D-03
  0.44951031D-02 -0.38896968D-02  0.10520603D-02 -0.17958949D-06  0.12488519D-05
  0.60765758D-02  0.10307023D-01  0.11734181D-01 -0.85181447D-03  0.59337649D-02
  0.10064788D-01  0.11458406D-01 -0.84811515D-03  0.10366602D-02  0.17583720D-02
  0.20018443D-02  0.10143832D-03
MO    8     MO 0.0        OCC NO =    1.0000000  ORB. ENERGY =   -1.099676
 -0.45809405D-02 -0.84380164D-02 -0.13566596D-01 -0.17508083D-01 -0.14860616D-01
 -0.51218814D-02 -0.43284214D-02 -0.15430862D-02  0.54350297D-02  0.62121444D-01
  0.45718873D-01  0.24712648D-01 -0.37860213D-01 -0.27863587D-01 -0.15061243D-01
 -0.72998740D-05 -0.53724123D-05 -0.29039766D-05  0.17186424D-02 -0.10290283D-02
  0.86688183D-04  0.85234087D-07 -0.70008696D-02  0.92961404D-02 -0.12699778D-02
 -0.14312973D-01 -0.63081767D-06  0.27049252D-05  0.15125910D-03  0.25656407D-03
  0.29208912D-03  0.18038869D-03 -0.54895466D-02 -0.10111654D-01 -0.16257461D-01
 -0.20980722D-01 -0.17808144D-01 -0.61377804D-02 -0.53436502D-02 -0.19050163D-02
  0.67098128D-02  0.23516080D-01  0.17306885D-01  0.93549760D-02 -0.71512948D-01
 -0.52630640D-01 -0.28448700D-01 -0.61961847D-05 -0.45601416D-05 -0.24649159D-05
  0.16881011D-02  0.66279963D-04  0.10373817D-02  0.53706214D-07  0.51195514D-02
 -0.24862574D-02 -0.14711628D-02 -0.21048338D-01 -0.24737336D-05  0.25515408D-05
  0.25370063D-03  0.43032428D-03  0.48990898D-03  0.14263070D-03 -0.33174705D-01
 -0.61107255D-01 -0.98247909D-01 -0.12679175D+00 -0.10761907D+00 -0.37092144D-01
 -0.36447100D-01 -0.12993425D-01  0.45765200D-01 -0.36301528D-01 -0.26716458D-01
 -0.14441179D-01  0.42367453D-01  0.31180733D-01  0.16854276D-01  0.41849059D-05
  0.30799217D-05  0.16648053D-05  0.97732623D-03  0.13987779D-02 -0.17325281D-02
 -0.14230235D-06  0.77302169D-02  0.48248733D-02 -0.72470520D-02  0.85659930D-02
 -0.19040004D-05  0.62785767D-06 -0.85955988D-01 -0.15829513D+00 -0.25576181D+00
 -0.33473723D+00 -0.28673244D+00 -0.98639280D-01 -0.13554186D+00 -0.67005235D-01
  0.17675552D+00  0.54052748D-02  0.42080928D-02  0.19981513D-02 -0.31271170D-01
 -0.24345105D-01 -0.11559917D-01 -0.18257195D-05 -0.14213518D-05 -0.67490812D-06
  0.58586941D-01  0.10418751D-02 -0.25066952D-02 -0.22913690D-06  0.54823061D-02