 Generated by Multiwfn
GAUSSIAN             21 MOL ORBITALS    192 PRIMITIVES       12 NUCLEI
  B    1    (CENTRE  1)   1.02499004  2.54011114  0.00010490  CHARGE =  5.0
  H    2    (CENTRE  2)   1.86730431  4.62867728  0.00010136  CHARGE =  1.0
  B    3    (CENTRE  3)  -2.71334917 -0.38272304  0.00025096  CHARGE =  5.0
  H    4    (CENTRE  4)  -4.94299310 -0.69711957  0.00035975  CHARGE =  1.0
  B    5    (CENTRE  5)   1.68770587 -2.15749468 -0.00022669  CHARGE =  5.0
  N    6    (CENTRE  6)   2.63365857  0.37142357 -0.00020422  CHARGE =  7.0
  N    7    (CENTRE  7)  -1.63847038  2.09445213  0.00022835  CHARGE =  7.0
  H    8    (CENTRE  8)  -2.80861809  3.59359322  0.00037345  CHARGE =  1.0
  N    9    (CENTRE  9)  -0.99498885 -2.46579102 -0.00007332  CHARGE =  7.0
  H   10    (CENTRE 10)  -1.70513774 -4.23001704 -0.00016696  CHARGE =  1.0
  H   11    (CENTRE 11)   4.51680796  0.63691139 -0.00040924  CHARGE =  1.0
  H   12    (CENTRE 12)   3.07450768 -3.93210506 -0.00055989  CHARGE =  1.0
CENTRE ASSIGNMENTS    1  1  1  1  1  1  1  1  1  1  1  1  1  1  1  1  1  1  1  1
CENTRE ASSIGNMENTS    1  1  1  1  1  1  1  1  2  2  2  2  3  3  3  3  3  3  3  3
CENTRE ASSIGNMENTS    3  3  3  3  3  3  3  3  3  3  3  3  3  3  3  3  3  3  3  3
CENTRE ASSIGNMENTS    4  4  4  4  5  5  5  5  5  5  5  5  5  5  5  5  5  5  5  5
CENTRE ASSIGNMENTS    5  5  5  5  5  5  5  5  5  5  5  5  6  6  6  6  6  6  6  6
CENTRE ASSIGNMENTS    6  6  6  6  6  6  6  6  6  6  6  6  6  6  6  6  6  6  6  6
CENTRE ASSIGNMENTS    7  7  7  7  7  7  7  7  7  7  7  7  7  7  7  7  7  7  7  7
CENTRE ASSIGNMENTS    7  7  7  7  7  7  7  7  8  8  8  8  9  9  9  9  9  9  9  9
CENTRE ASSIGNMENTS    9  9  9  9  9  9  9  9  9  9  9  9  9  9  9  9  9  9  9  9
CENTRE ASSIGNMENTS   10 10 10 10 11 11 11 11 12 12 12 12
TYPE ASSIGNMENTS      1  1  1  1  1  1  1  1  1  2  2  2  3  3  3  4  4  4  1  2
TYPE ASSIGNMENTS      3  4  5  6  7  8  9 10  1  1  1  1  1  1  1  1  1  1  1  1
TYPE ASSIGNMENTS      1  2  2  2  3  3  3  4  4  4  1  2  3  4  5  6  7  8  9 10
TYPE ASSIGNMENTS      1  1  1  1  1  1  1  1  1  1  1  1  1  2  2  2  3  3  3  4
TYPE ASSIGNMENTS      4  4  1  2  3  4  5  6  7  8  9 10  1  1  1  1  1  1  1  1
TYPE ASSIGNMENTS      1  2  2  2  3  3  3  4  4  4  1  2  3  4  5  6  7  8  9 10
TYPE ASSIGNMENTS      1  1  1  1  1  1  1  1  1  2  2  2  3  3  3  4  4  4  1  2
TYPE ASSIGNMENTS      3  4  5  6  7  8  9 10  1  1  1  1  1  1  1  1  1  1  1  1
TYPE ASSIGNMENTS      1  2  2  2  3  3  3  4  4  4  1  2  3  4  5  6  7  8  9 10
TYPE ASSIGNMENTS      1  1  1  1  1  1  1  1  1  1  1  1
EXPONENTS  0.2068882D+04 0.3106496D+03 0.7068303D+02 0.1986108D+02 0.6299305D+01
EXPONENTS  0.2127027D+01 0.4727971D+01 0.1190338D+01 0.3594117D+00 0.4727971D+01
EXPONENTS  0.1190338D+01 0.3594117D+00 0.4727971D+01 0.1190338D+01 0.3594117D+00
EXPONENTS  0.4727971D+01 0.1190338D+01 0.3594117D+00 0.1267512D+00 0.1267512D+00
EXPONENTS  0.1267512D+00 0.1267512D+00 0.6000000D+00 0.6000000D+00 0.6000000D+00
EXPONENTS  0.6000000D+00 0.6000000D+00 0.6000000D+00 0.1873114D+02 0.2825394D+01
EXPONENTS  0.6401217D+00 0.1612778D+00 0.2068882D+04 0.3106496D+03 0.7068303D+02
EXPONENTS  0.1986108D+02 0.6299305D+01 0.2127027D+01 0.4727971D+01 0.1190338D+01
EXPONENTS  0.3594117D+00 0.4727971D+01 0.1190338D+01 0.3594117D+00 0.4727971D+01
EXPONENTS  0.1190338D+01 0.3594117D+00 0.4727971D+01 0.1190338D+01 0.3594117D+00
EXPONENTS  0.1267512D+00 0.1267512D+00 0.1267512D+00 0.1267512D+00 0.6000000D+00
EXPONENTS  0.6000000D+00 0.6000000D+00 0.6000000D+00 0.6000000D+00 0.6000000D+00
EXPONENTS  0.1873114D+02 0.2825394D+01 0.6401217D+00 0.1612778D+00 0.2068882D+04
EXPONENTS  0.3106496D+03 0.7068303D+02 0.1986108D+02 0.6299305D+01 0.2127027D+01
EXPONENTS  0.4727971D+01 0.1190338D+01 0.3594117D+00 0.4727971D+01 0.1190338D+01
EXPONENTS  0.3594117D+00 0.4727971D+01 0.1190338D+01 0.3594117D+00 0.4727971D+01
EXPONENTS  0.1190338D+01 0.3594117D+00 0.1267512D+00 0.1267512D+00 0.1267512D+00
EXPONENTS  0.1267512D+00 0.6000000D+00 0.6000000D+00 0.6000000D+00 0.6000000D+00
EXPONENTS  0.6000000D+00 0.6000000D+00 0.4173511D+04 0.6274579D+03 0.1429021D+03
EXPONENTS  0.4023433D+02 0.1282021D+02 0.4390437D+01 0.1162636D+02 0.2716280D+01
EXPONENTS  0.7722184D+00 0.1162636D+02 0.2716280D+01 0.7722184D+00 0.1162636D+02
EXPONENTS  0.2716280D+01 0.7722184D+00 0.1162636D+02 0.2716280D+01 0.7722184D+00
EXPONENTS  0.2120315D+00 0.2120315D+00 0.2120315D+00 0.2120315D+00 0.8000000D+00
EXPONENTS  0.8000000D+00 0.8000000D+00 0.8000000D+00 0.8000000D+00 0.8000000D+00
EXPONENTS  0.4173511D+04 0.6274579D+03 0.1429021D+03 0.4023433D+02 0.1282021D+02
EXPONENTS  0.4390437D+01 0.1162636D+02 0.2716280D+01 0.7722184D+00 0.1162636D+02
EXPONENTS  0.2716280D+01 0.7722184D+00 0.1162636D+02 0.2716280D+01 0.7722184D+00
EXPONENTS  0.1162636D+02 0.2716280D+01 0.7722184D+00 0.2120315D+00 0.2120315D+00
EXPONENTS  0.2120315D+00 0.2120315D+00 0.8000000D+00 0.8000000D+00 0.8000000D+00
EXPONENTS  0.8000000D+00 0.8000000D+00 0.8000000D+00 0.1873114D+02 0.2825394D+01
EXPONENTS  0.6401217D+00 0.1612778D+00 0.4173511D+04 0.6274579D+03 0.1429021D+03
EXPONENTS  0.4023433D+02 0.1282021D+02 0.4390437D+01 0.1162636D+02 0.2716280D+01
EXPONENTS  0.7722184D+00 0.1162636D+02 0.2716280D+01 0.7722184D+00 0.1162636D+02
EXPONENTS  0.2716280D+01 0.7722184D+00 0.1162636D+02 0.2716280D+01 0.7722184D+00
EXPONENTS  0.2120315D+00 0.2120315D+00 0.2120315D+00 0.2120315D+00 0.8000000D+00
EXPONENTS  0.8000000D+00 0.8000000D+00 0.8000000D+00 0.8000000D+00 0.8000000D+00
EXPONENTS  0.1873114D+02 0.2825394D+01 0.6401217D+00 0.1612778D+00 0.1873114D+02
EXPONENTS  0.2825394D+01 0.6401217D+00 0.1612778D+00 0.1873114D+02 0.2825394D+01
EXPONENTS  0.6401217D+00 0.1612778D+00
MO    1     MO 0.0        OCC NO =    2.0000000  ORB. ENERGY =  -14.314772
  0.22859911D-05  0.42107577D-05  0.67700330D-05  0.87369225D-05  0.74157778D-05
  0.25559327D-05 -0.48315450D-04 -0.17224503D-04  0.60667824D-04  0.18373483D-03
  0.13522141D-03  0.73091896D-04 -0.25928451D-03 -0.19082293D-03 -0.10314646D-03
 -0.36187267D-07 -0.26632367D-07 -0.14395725D-07 -0.76602419D-04 -0.24583979D-04
  0.23263586D-04  0.44409691D-08  0.57897195D-04  0.11700213D-03 -0.34858237D-04
 -0.22609494D-03 -0.34464538D-07  0.44890888D-07  0.30153244D-05  0.51145608D-05
  0.58227467D-05  0.68833318D-05  0.13562094D-05  0.24981152D-05  0.40164558D-05
  0.51833519D-05  0.43995567D-05  0.15163575D-05 -0.54285587D-05 -0.19352862D-05
  0.68164291D-05  0.93839213D-05  0.69061869D-05  0.37330353D-05 -0.45030737D-05
 -0.33140803D-05 -0.17913762D-05 -0.86374838D-09 -0.63568390D-09 -0.34360936D-09
  0.18195160D-04  0.99670969D-05  0.20925363D-05 -0.69499132D-09 -0.25506181D-05
 -0.13861525D-04  0.51721381D-05 -0.13283425D-05  0.10670057D-08 -0.18978297D-08
  0.25023564D-06  0.42444700D-06  0.48321791D-06  0.51235933D-05  0.23165055D-05
  0.42669647D-05  0.68604024D-05  0.88535467D-05  0.75147668D-05  0.25900503D-05
 -0.49308859D-04 -0.17578654D-04  0.61915209D-04  0.98085504D-04  0.72186968D-04
  0.39019579D-04  0.29932710D-03  0.22029265D-03  0.11907588D-03  0.37813136D-08
  0.27828940D-08  0.15042515D-08 -0.78700937D-04 -0.16326415D-04 -0.29141746D-04
  0.88123417D-09  0.69018407D-05  0.17217739D-03 -0.35750034D-04  0.16165000D-03
 -0.36935462D-09  0.13380319D-08  0.67291542D+00  0.12392300D+01  0.20022580D+01
  0.26205253D+01  0.22447148D+01  0.77220789D+00 -0.17949495D-01 -0.88733481D-02
  0.23407324D-01  0.87691653D-03  0.68269353D-03  0.32416703D-03  0.12360929D-03
  0.96231810D-04  0.45694267D-04 -0.31938829D-07 -0.24864888D-07 -0.11806729D-07
  0.99693101D-03 -0.24032677D-04 -0.32392366D-05 -0.84241283D-09 -0.94309245D-02
 -0.96433191D-02 -0.94334698D-02  0.60161040D-04  0.54905612D-08 -0.29094686D-07
 -0.32994383D-01 -0.60761914D-01 -0.98174699D-01 -0.12848958D+00 -0.11006284D+00
 -0.37862891D-01  0.85266492D-03  0.42151562D-03 -0.11119312D-02  0.33897791D-04
  0.26389972D-04  0.12530892D-04 -0.44038974D-04 -0.34285044D-04 -0.16279752D-04
 -0.72297665D-08 -0.56284887D-08 -0.26726055D-08 -0.67595693D-04 -0.20304332D-04
  0.16066554D-04  0.15855670D-08  0.42072306D-03  0.45381908D-03  0.49072950D-03
  0.45385976D-04  0.12387459D-07 -0.10352444D-07 -0.22856862D-05 -0.38769564D-05
 -0.44137778D-05 -0.10366898D-04 -0.17742438D-01 -0.32674182D-01 -0.52792576D-01
 -0.69094133D-01 -0.59185317D-01 -0.20360435D-01  0.44643695D-03  0.22069648D-03
 -0.58218318D-03  0.12763995D-04  0.99369736D-05  0.47184266D-05  0.32789653D-04
  0.25527269D-04  0.12121250D-04  0.13660445D-08  0.10634874D-08  0.50498145D-09
 -0.44562957D-04 -0.14790383D-04 -0.20011016D-04 -0.10764243D-08  0.21744661D-03
  0.22602301D-03  0.27628792D-03 -0.52917821D-04  0.48761735D-08  0.98822620D-10
 -0.95850411D-06 -0.16258044D-05 -0.18509208D-05 -0.11599769D-04  0.59103164D-04
  0.10025015D-03  0.11413126D-03 -0.67435037D-04  0.30773843D-05  0.52198263D-05
  0.59425877D-05  0.68960931D-05
MO    2     MO 0.0        OCC NO =    2.0000000  ORB. ENERGY =  -14.314753
  0.24423071D-05  0.44986892D-05  0.72329676D-05  0.93343530D-05  0.79228684D-05
  0.27307072D-05 -0.52757087D-04 -0.18807950D-04  0.66245013D-04 -0.29509605D-03
 -0.21717877D-03 -0.11739271D-03 -0.83655724D-04 -0.61567233D-04 -0.33279240D-04
  0.10225898D-07  0.75258479D-08  0.40679838D-08 -0.84583898D-04  0.31660725D-04
  0.23043403D-05 -0.36320112D-09  0.20562483D-03 -0.13189512D-04 -0.38408375D-04
  0.45822518D-04 -0.24243387D-07  0.17089376D-08  0.32948132D-05  0.55886269D-05
  0.63624542D-05  0.73095865D-05  0.23460238D-05  0.43213369D-05  0.69478216D-05
  0.89663638D-05  0.76105244D-05  0.26230543D-05 -0.48052988D-04 -0.17130935D-04
  0.60338260D-04  0.13082280D-03  0.96280292D-04  0.52042862D-04  0.29190899D-03
  0.21483322D-03  0.11612486D-03 -0.33502823D-08 -0.24656724D-08 -0.13327821D-08
 -0.74392581D-04 -0.69288681D-05 -0.33218805D-04  0.71343880D-09  0.34154860D-05
  0.16826213D-03 -0.34038749D-04  0.16756909D-03 -0.20915124D-08 -0.47545480D-08
  0.30039152D-05  0.50952088D-05  0.58007151D-05  0.71744331D-05  0.14921806D-05
  0.27485720D-05  0.44191389D-05  0.57030260D-05  0.48406488D-05  0.16683850D-05
 -0.84263461D-05 -0.30040002D-05  0.10580634D-04  0.10675826D-04  0.78569762D-05
  0.42469702D-05  0.32626583D-04  0.24011847D-04  0.12979242D-04  0.88370014D-09
  0.65036760D-09  0.35154641D-09  0.13483664D-04 -0.83999584D-05  0.53065774D-05
  0.13437157D-08 -0.13902207D-04  0.79992685D-05  0.30182988D-05  0.19183617D-05
  0.21875934D-08 -0.36070821D-10  0.31802109D-01  0.58566241D-01  0.94627089D-01
  0.12384652D+00  0.10608564D+00  0.36494690D-01 -0.87477812D-03 -0.43244730D-03
  0.11407683D-02  0.29907954D-04  0.23283820D-04  0.11055981D-04  0.37963483D-05
  0.29555178D-05  0.14033844D-05  0.20508218D-08  0.15965975D-08  0.75812097D-09
  0.29132204D-04  0.22649954D-04 -0.31809693D-05 -0.38526713D-08 -0.49296189D-03
 -0.46720254D-03 -0.41858724D-03  0.38988295D-04  0.13156656D-07 -0.11742009D-07
  0.67180787D+00  0.12371903D+01  0.19989625D+01  0.26162122D+01  0.22410202D+01
  0.77093692D+00 -0.17921381D-01 -0.88594497D-02  0.23370661D-01 -0.54354235D-03
 -0.42315640D-03 -0.20092963D-03  0.69699768D-03  0.54262383D-03  0.25765699D-03
  0.15838111D-06  0.12330222D-06  0.58548256D-07  0.99405021D-03  0.13455708D-04
 -0.18523761D-04 -0.68956202D-08 -0.95517461D-02 -0.94942143D-02 -0.94159497D-02
 -0.21145326D-03  0.61100291D-08  0.14109043D-07  0.59046685D-04  0.10015435D-03
  0.11402219D-03 -0.68087984D-04 -0.43381984D-01 -0.79891549D-01 -0.12908298D+00
 -0.16894187D+00 -0.14471385D+00 -0.49783242D-01  0.11277461D-02  0.55750222D-03
 -0.14706551D-02  0.26469714D-04  0.20607095D-04  0.97849778D-05  0.64791880D-04
  0.50441514D-04  0.23951415D-04  0.93719062D-09  0.72961786D-09  0.34644837D-09
 -0.84265385D-04 -0.49134321D-05 -0.27408494D-04 -0.27484913D-08  0.61101450D-03
  0.55336119D-03  0.63835518D-03  0.42067522D-07  0.79057179D-08 -0.88096164D-08
 -0.31380464D-05 -0.53227206D-05 -0.60597293D-05 -0.10319385D-04  0.33883443D-05
  0.57472733D-05  0.65430675D-05 -0.16381454D-04  0.44561618D-06  0.75584939D-06
  0.86050781D-06  0.54932169D-05
MO    3     MO 0.0        OCC NO =    2.0000000  ORB. ENERGY =  -14.314737
  0.17592368D-05  0.32404850D-05  0.52100340D-05  0.67236988D-05  0.57069816D-05
  0.19669765D-05 -0.14039664D-04 -0.50051531D-05  0.17629057D-04 -0.22530993D-04
 -0.16581900D-04 -0.89630966D-05 -0.32992137D-04 -0.24280880D-04 -0.13124664D-04
 -0.11577065D-08 -0.85202521D-09 -0.46054940D-09  0.46939807D-05 -0.20410905D-05
 -0.77507238D-05  0.97486425D-10  0.12923892D-04  0.13359979D-05 -0.99818610D-06
 -0.20910439D-05 -0.13772403D-08  0.10923097D-08  0.79688617D-06  0.13516698D-05
  0.15388283D-05  0.62985871D-05  0.26288594D-05  0.48423153D-05  0.77854479D-05
  0.10047345D-04  0.85280458D-05  0.29392885D-05 -0.54438387D-04 -0.19407336D-04
  0.68356157D-04  0.22460930D-03  0.16530337D-03  0.89352248D-04 -0.20912023D-03
 -0.15390404D-03 -0.83190512D-04 -0.39276653D-07 -0.28906030D-07 -0.15624719D-07
 -0.84892966D-04 -0.17119565D-04  0.25959057D-04  0.46507654D-08  0.61580209D-04
  0.13372998D-03 -0.38780448D-04 -0.21013200D-03 -0.37505106D-07  0.45346654D-07
  0.34056383D-05  0.57766071D-05  0.65764630D-05  0.79974934D-05  0.26035932D-05
  0.47957755D-05  0.77106215D-05  0.99507790D-05  0.84460822D-05  0.29110389D-05
 -0.53091554D-04 -0.18927188D-04  0.66664991D-04 -0.31032378D-03 -0.22838577D-03
 -0.12345049D-03 -0.43181933D-05 -0.31780157D-05 -0.17178286D-05  0.18968849D-07
  0.13960307D-07  0.75460336D-08 -0.81709464D-04  0.30667170D-04  0.79873846D-05
 -0.38673590D-09  0.20079761D-03 -0.11851764D-04 -0.37486288D-04  0.74461274D-04
 -0.24733157D-07 -0.29415022D-08  0.19816515D-01  0.36493768D-01  0.58963987D-01
  0.77171184D-01  0.66104035D-01  0.22740554D-01 -0.55866405D-03 -0.27617604D-03
  0.72853471D-03  0.12632215D-04  0.98343810D-05  0.46697120D-05  0.21669543D-05
  0.16870085D-05  0.80105132D-06  0.27984434D-08  0.21786329D-08  0.10344920D-08
  0.89454408D-05  0.24530505D-04  0.90826730D-05 -0.32534524D-08 -0.31898446D-03
 -0.30944887D-03 -0.24688107D-03 -0.43644912D-04  0.79154670D-08 -0.18634289D-08
  0.42484313D-01  0.78238411D-01  0.12641196D+00  0.16544608D+00  0.14171939D+00
  0.48753113D-01 -0.11624297D-02 -0.57464809D-03  0.15158848D-02 -0.26238048D-04
 -0.20426740D-04 -0.96993385D-05  0.34289940D-04  0.26695266D-04  0.12675857D-04
  0.10935070D-07  0.85131270D-08  0.40423338D-08  0.43103383D-04 -0.10202308D-04
  0.22433045D-04  0.29450092D-09 -0.61314818D-03 -0.65590152D-03 -0.56557388D-03
  0.28940020D-05  0.10709210D-07 -0.90107933D-08  0.44004687D-05  0.74640277D-05
  0.84975318D-05 -0.18808579D-04  0.67232622D+00  0.12381449D+01  0.20005049D+01
  0.26182308D+01  0.22427493D+01  0.77153175D+00 -0.17938345D-01 -0.88678359D-02
  0.23392783D-01 -0.32975055D-03 -0.25671607D-03 -0.12189787D-03 -0.81943076D-03
 -0.63793994D-03 -0.30291645D-03  0.33903538D-07  0.26394445D-07  0.12533016D-07
  0.99274871D-03  0.76753634D-05  0.18706179D-04 -0.34880825D-08 -0.96112885D-02
 -0.94563684D-02 -0.94200997D-02  0.15105767D-03  0.39673689D-07 -0.20921993D-07
  0.59167074D-04  0.10035856D-03  0.11425467D-03 -0.69674001D-04  0.24168788D-05
  0.40994838D-05  0.46671175D-05 -0.16977234D-04  0.33032823D-05  0.56029920D-05
  0.63788083D-05  0.79104249D-05
MO    4     MO 0.0        OCC NO =    2.0000000  ORB. ENERGY =   -6.745788
  0.23663339D+00  0.43587478D+00  0.70079707D+00  0.90439880D+00  0.76764107D+00
  0.26457628D+00 -0.99051329D-02 -0.35311891D-02  0.12437489D-01 -0.40927991D-03
 -0.30121347D-03 -0.16281641D-03 -0.10701495D-02 -0.78758677D-03 -0.42571817D-03
 -0.17245264D-07 -0.12691817D-07 -0.68603708D-08 -0.73848316D-03 -0.17910938D-03
 -0.51403518D-03 -0.13878227D-07 -0.32831865D-02 -0.32200302D-02 -0.40255254D-02
  0.29062319D-03 -0.91722246D-07  0.11427001D-06 -0.12899393D-03 -0.21879813D-03
 -0.24909393D-03  0.68615718D-03  0.31555328D+00  0.58124390D+00  0.93452074D+00
  0.12060259D+01  0.10236579D+01  0.35281542D+00 -0.13189002D-01 -0.47018913D-02
  0.16560914D-01  0.13554223D-02  0.99753606D-03  0.53920310D-03  0.17796721D-03
  0.13097668D-03  0.70797470D-04 -0.89267353D-07 -0.65697165D-07 -0.35511613D-07
 -0.11129093D-02  0.45559927D-03  0.47232654D-04 -0.37530128D-07 -0.43758057D-02
 -0.45086659D-02 -0.53788586D-02  0.14954912D-03 -0.21116344D-06  0.80247647D-07
 -0.16158855D-03 -0.27408477D-03 -0.31203582D-03  0.66164705D-03  0.92459592D-01
  0.17030903D+00  0.27382193D+00  0.35337508D+00  0.29993983D+00  0.10337769D+00
 -0.39055551D-02 -0.13923340D-02  0.49040530D-02 -0.45071305D-03 -0.33170659D-03
 -0.17929900D-03  0.58921660D-03  0.43363961D-03  0.23439736D-03  0.73918388D-07
  0.54400946D-07  0.29405612D-07 -0.52945922D-04 -0.42488445D-03  0.55899815D-03
  0.83867456D-07 -0.10954523D-02 -0.10572621D-02 -0.15536309D-02 -0.39514758D-03
 -0.73996922D-07  0.52994248D-07  0.15046763D-04  0.27709871D-04  0.44771603D-04
  0.58596403D-04  0.50193071D-04  0.17266998D-04 -0.48335234D-03 -0.23894564D-03
  0.63032328D-03 -0.52248537D-03 -0.40676321D-03 -0.19314556D-03  0.57825607D-04
  0.45018159D-04  0.21376214D-04  0.11627181D-06  0.90519457D-07  0.42981840D-07
 -0.18410494D-02  0.91018297D-03 -0.53872334D-06 -0.12318519D-06  0.38901100D-03
  0.47998762D-03  0.64790164D-03 -0.13745734D-03  0.94533195D-07  0.58750036D-09
 -0.10867244D-03 -0.20012937D-03 -0.32335454D-03 -0.42320158D-03 -0.36251008D-03
 -0.12470767D-03 -0.43823567D-03 -0.21664217D-03  0.57148816D-03  0.30044796D-03
  0.23390354D-03  0.11106567D-03 -0.50048915D-03 -0.38963880D-03 -0.18501428D-03
 -0.70222257D-08 -0.54669148D-08 -0.25958845D-08 -0.16570782D-02 -0.57017676D-03
  0.84329014D-03  0.42658551D-07  0.26233744D-03  0.26380953D-03  0.69892957D-03
  0.23686252D-03  0.27812584D-07  0.98095524D-08 -0.76812438D-04 -0.13028843D-03
 -0.14832878D-03  0.39312721D-04 -0.28716060D-04 -0.52883024D-04 -0.85444559D-04
 -0.11182856D-03 -0.95791184D-04 -0.32953277D-04 -0.46709589D-03 -0.23090925D-03
  0.60912379D-03  0.12649372D-04  0.98477382D-05  0.46760544D-05  0.57068504D-03
  0.44428742D-03  0.21096338D-03  0.97085941D-07  0.75582955D-07  0.35889461D-07
 -0.17754187D-02 -0.16812749D-03 -0.94715368D-03 -0.91978975D-07  0.37517940D-03
  0.37276874D-03  0.66557554D-03 -0.23084117D-03  0.94541570D-08 -0.85630724D-07
 -0.70230028D-04 -0.11912342D-03 -0.13561780D-03  0.18692703D-04 -0.66510406D-04
 -0.11281424D-03 -0.12843502D-03  0.69987230D-05 -0.69611744D-04 -0.11807469D-03
 -0.13442386D-03  0.73200212D-03
MO    5     MO 0.0        OCC NO =    2.0000000  ORB. ENERGY =   -6.745779
  0.32067257D+00  0.59067355D+00  0.94968168D+00  0.12255915D+01  0.10402650D+01
  0.35853923D+00 -0.13353137D-01 -0.47604059D-02  0.16767013D-01 -0.38464642D-03
 -0.28308422D-03 -0.15301691D-03 -0.89043519D-03 -0.65532432D-03 -0.35422569D-03
  0.26091720D-08  0.19202452D-08  0.10379596D-08 -0.14668171D-02  0.58325351D-04
  0.22816263D-03 -0.18041578D-08 -0.47697140D-02 -0.48130046D-02 -0.54935289D-02
 -0.31876976D-03 -0.11939817D-06  0.10228841D-06 -0.13669354D-03 -0.23185811D-03
 -0.26396227D-03  0.10250402D-04 -0.24657854D+00 -0.45419358D+00 -0.73024994D+00
 -0.94240857D+00 -0.79990323D+00 -0.27569580D+00  0.10252658D-01  0.36550823D-02
 -0.12873863D-01 -0.61020667D-03 -0.44908745D-03 -0.24274746D-03 -0.11381082D-03
 -0.83760166D-04 -0.45275296D-04  0.23959578D-07  0.17633282D-07  0.95314048D-08
  0.12280814D-02  0.38938217D-03  0.19578712D-04 -0.21329927D-07  0.38899203D-02
  0.36446708D-02  0.42326119D-02  0.30207107D-03  0.60670323D-07 -0.77302999D-07
  0.96914944D-04  0.16438609D-03  0.18714775D-03  0.19013627D-03  0.20918952D-01
  0.38532362D-01  0.61952120D-01  0.79950994D-01  0.67861287D-01  0.23389169D-01
 -0.87910855D-03 -0.31340302D-03  0.11038623D-02 -0.12026618D-03 -0.88511048D-04
 -0.47843314D-04  0.71123272D-04  0.52343854D-04  0.28293682D-04  0.15388862D-07
  0.11325581D-07  0.61218721D-08 -0.41671760D-04 -0.11130378D-03  0.34879497D-04
  0.12402233D-07 -0.47936639D-03 -0.57717168D-04 -0.35409222D-03  0.53058563D-04
  0.41471223D-07  0.34557693D-07 -0.16040122D-03 -0.29539225D-03 -0.47727341D-03
 -0.62464829D-03 -0.53506724D-03 -0.18406933D-03 -0.12716288D-04 -0.62863075D-05
  0.16582876D-04 -0.20445471D-03 -0.15917125D-03 -0.75580141D-04  0.24484877D-03
  0.19061868D-03  0.90512490D-04  0.15941817D-07  0.12410959D-07  0.58931623D-08
 -0.31823243D-04  0.31889562D-03 -0.22335347D-03 -0.43365467D-07 -0.20482760D-03
 -0.11716567D-03  0.16348899D-03 -0.25650110D-03  0.76553327D-07 -0.16013478D-07
 -0.11877733D-04 -0.21873838D-04 -0.35342163D-04 -0.46255294D-04 -0.39621805D-04
 -0.13630360D-04 -0.66108574D-04 -0.32680829D-04  0.86209932D-04  0.45418581D-03
  0.35359090D-03  0.16789747D-03  0.25086320D-03  0.19530101D-03  0.92735827D-04
 -0.16269915D-07 -0.12666389D-07 -0.60144494D-08 -0.25013804D-03 -0.48562654D-03
 -0.19587120D-03  0.21914958D-07  0.25116878D-03 -0.16288588D-03  0.10169545D-03
 -0.71143327D-04 -0.47131361D-07 -0.22179646D-07 -0.10522710D-04 -0.17848507D-04
 -0.20319895D-04  0.52113044D-05  0.15440191D-03  0.28434401D-03  0.45942246D-03
  0.60128524D-03  0.51505470D-03  0.17718478D-03 -0.12629570D-03 -0.62434385D-04
  0.16469791D-03  0.21985682D-03  0.17116205D-03  0.81273795D-04 -0.10109811D-03
 -0.78706490D-04 -0.37372626D-04  0.85919618D-08  0.66889795D-08  0.31761641D-08
 -0.49650673D-03 -0.21684852D-03  0.96999820D-04  0.15425833D-07  0.30363053D-03
  0.24601471D-03  0.32577698D-04  0.21888609D-03 -0.37381259D-07  0.21202041D-07
  0.29826732D-05  0.50591783D-05  0.57596957D-05 -0.38048587D-04 -0.23408869D-04
 -0.39705873D-04 -0.45203733D-04  0.42802070D-04 -0.13294459D-04 -0.22549918D-04
 -0.25672285D-04  0.10598612D-03
MO    6     MO 0.0        OCC NO =    2.0000000  ORB. ENERGY =   -6.745765
 -0.72537886D-01 -0.13361358D+00 -0.21482318D+00 -0.27723550D+00 -0.23531362D+00
 -0.81103531D-01  0.29952348D-02  0.10678040D-02 -0.37609994D-02 -0.34707579D-04
 -0.25543375D-04 -0.13807087D-04  0.22607931D-04  0.16638524D-04  0.89937036D-05
 -0.51243930D-08 -0.37713462D-08 -0.20385444D-08  0.50130531D-03 -0.20047419D-03
 -0.35521517D-03 -0.48263138D-09  0.10089793D-02  0.14375487D-02  0.12564893D-02
 -0.56756686D-04  0.59688510D-07  0.42737931D-07  0.17126203D-04  0.29049282D-04
  0.33071581D-04  0.33076409D-03 -0.60935434D-01 -0.11224206D+00 -0.18046216D+00
 -0.23289162D+00 -0.19767515D+00 -0.68131002D-01  0.25125281D-02  0.89571861D-03
 -0.31548834D-02  0.17788592D-04  0.13091685D-04  0.70765131D-05  0.45602025D-04
  0.33561248D-04  0.18141027D-04 -0.92035917D-08 -0.67734716D-08 -0.36612981D-08
  0.44510100D-03  0.37959008D-03  0.10853516D-03 -0.21463235D-07  0.12197546D-02
  0.87640872D-03  0.10576819D-02 -0.26132466D-03 -0.64889418D-07 -0.20458352D-07
  0.12326916D-04  0.20908783D-04  0.23803910D-04  0.32676508D-03  0.39382939D+00
  0.72542720D+00  0.11663378D+01  0.15051926D+01  0.12775864D+01  0.44033478D+00
 -0.16412655D-01 -0.58511267D-02  0.20608730D-01 -0.79857571D-03 -0.58771946D-03
 -0.31768290D-03  0.10238978D-02  0.75354740D-03  0.40731870D-03  0.17341225D-06
  0.12762441D-06  0.68985453D-07 -0.17153801D-02  0.67291643D-04 -0.83821762D-04
 -0.19361310D-07 -0.57856156D-02 -0.58416308D-02 -0.67399710D-02  0.19391301D-03
 -0.15907889D-06  0.10638782D-06 -0.98522860D-04 -0.18143808D-03 -0.29315450D-03
 -0.38367623D-03 -0.32865307D-03 -0.11306046D-03 -0.15761967D-03 -0.77919416D-04
  0.20554643D-03 -0.20413115D-03 -0.15891936D-03 -0.75460532D-04 -0.45475196D-03
 -0.35403167D-03 -0.16810676D-03 -0.59667926D-08 -0.46452433D-08 -0.22057258D-08
 -0.58974358D-03  0.39917497D-03  0.47395503D-03 -0.19966088D-07 -0.83653605D-04
  0.14546499D-03  0.30534742D-03  0.29403207D-03  0.12056919D-06 -0.18799333D-07
  0.15390761D-03  0.28343372D-03  0.45795167D-03  0.59936029D-03  0.51340580D-03
  0.17661754D-03 -0.24850497D-03 -0.12284864D-03  0.32406684D-03  0.66745142D-04
  0.51962159D-04  0.24673471D-04 -0.10224653D-03 -0.79600553D-04 -0.37797158D-04
  0.35346242D-07  0.27517614D-07  0.13066336D-07 -0.96179073D-03 -0.13137168D-03
  0.18467183D-03  0.21393891D-08  0.36718417D-03  0.39339485D-03  0.20022116D-03
 -0.70317654D-04 -0.35221753D-07  0.31672719D-07 -0.14585820D-04 -0.24740312D-04
 -0.28165971D-04 -0.35191433D-04 -0.10484535D-03 -0.19308147D-03 -0.31196705D-03
 -0.40829780D-03 -0.34974366D-03 -0.12031587D-03 -0.15505103D-03 -0.76649609D-04
  0.20219676D-03  0.48152207D-03  0.37487262D-03  0.17800278D-03  0.95017433D-04
  0.73972589D-04  0.35124802D-04 -0.30971927D-07 -0.24112140D-07 -0.11449297D-07
 -0.57931821D-03 -0.54852503D-03 -0.28126529D-03  0.13024506D-07  0.19056226D-03
 -0.14683709D-03  0.30783257D-03  0.14171508D-03 -0.55645443D-08 -0.10239317D-06
 -0.35752425D-04 -0.60642880D-04 -0.69039775D-04  0.31981662D-04 -0.35556019D-04
 -0.60309738D-04 -0.68660505D-04  0.29757269D-04 -0.17492735D-03 -0.29670990D-03
 -0.33779373D-03  0.18246371D-03
MO    7     MO 0.0        OCC NO =    2.0000000  ORB. ENERGY =   -0.889496
 -0.28170665D-01 -0.51889898D-01 -0.83428292D-01 -0.10766661D+00 -0.91385916D-01
 -0.31497202D-01 -0.29342292D-01 -0.10460555D-01  0.36843971D-01 -0.18182461D-01
 -0.13381557D-01 -0.72331989D-02 -0.45180294D-01 -0.33250871D-01 -0.17973257D-01
 -0.26142292D-05 -0.19239670D-05 -0.10399714D-05  0.31653107D-02  0.45121891D-03
  0.11224730D-02  0.10277913D-06  0.80398898D-02  0.36584268D-02 -0.67561117D-02
 -0.42363624D-02 -0.25105124D-05  0.17785786D-05  0.27391209D-02  0.46460675D-02
  0.52893836D-02 -0.21878878D-03 -0.28152128D-01 -0.51855752D-01 -0.83373393D-01
 -0.10759576D+00 -0.91325781D-01 -0.31476475D-01 -0.29326377D-01 -0.10454881D-01
  0.36823986D-01  0.48222283D-01  0.35489652D-01  0.19183397D-01  0.68034018D-02
  0.50070288D-02  0.27064740D-02 -0.53185962D-05 -0.39142719D-05 -0.21158007D-05
  0.31577055D-02 -0.12025986D-02 -0.16993895D-03  0.17372595D-06  0.29239868D-02
  0.87610447D-02 -0.67506648D-02 -0.16821713D-02 -0.20231886D-05  0.18152076D-05
  0.27367494D-02  0.46420449D-02  0.52848041D-02 -0.22366594D-03 -0.28174196D-01
 -0.51896402D-01 -0.83438749D-01 -0.10768011D+00 -0.91397371D-01 -0.31501150D-01
 -0.29350245D-01 -0.10463390D-01  0.36853956D-01 -0.29972034D-01 -0.22058206D-01
 -0.11923231D-01  0.38397212D-01  0.28258796D-01  0.15274867D-01  0.35725625D-05
  0.26292616D-05  0.14212078D-05  0.31590385D-02  0.74858913D-03 -0.95981037D-03
 -0.58435515D-07  0.65758411D-02  0.51174591D-02 -0.67561086D-02  0.59206945D-02
 -0.17722432D-05  0.79013604D-06 -0.77404676D-01 -0.14254718D+00 -0.23031741D+00
 -0.30143597D+00 -0.25820693D+00 -0.88826174D-01 -0.12001920D+00 -0.59331593D-01
  0.15651294D+00 -0.25213974D-01 -0.19629481D-01 -0.93207720D-02 -0.35800026D-02
 -0.27870892D-02 -0.13234085D-02  0.25943175D-05  0.20197176D-05  0.95903335D-06
  0.51920388D-01 -0.18699807D-03 -0.27395334D-04 -0.68347204D-08  0.73641392D-02
 -0.64839124D-03 -0.91429495D-02  0.23064708D-02 -0.38056537D-05  0.59990287D-06
 -0.77334281D-01 -0.14241754D+00 -0.23010795D+00 -0.30116183D+00 -0.25797210D+00
 -0.88745392D-01 -0.11991005D+00 -0.59277634D-01  0.15637060D+00  0.15731487D-01
  0.12247214D-01  0.58154105D-02 -0.20007166D-01 -0.15575899D-01 -0.73959876D-02
  0.13785522D-05  0.10732249D-05  0.50960513D-06  0.51874653D-01  0.12142123D-03
 -0.14988983D-03  0.86250962D-07  0.23433755D-02  0.43714197D-02 -0.91375193D-02
 -0.80707328D-02 -0.17501613D-05  0.14054075D-05  0.14651647D-01  0.24851966D-01
  0.28293085D-01 -0.14212693D-04 -0.77338533D-01 -0.14242537D+00 -0.23012060D+00
 -0.30117839D+00 -0.25798629D+00 -0.88750271D-01 -0.11991361D+00 -0.59279393D-01
  0.15637524D+00  0.95817750D-02  0.74595649D-02  0.35420653D-02  0.23585101D-01
  0.18361377D-01  0.87186315D-02  0.25701724D-05  0.20009203D-05  0.95010772D-06
  0.51883446D-01  0.75840615D-04  0.17930181D-03  0.40888089D-07  0.35685006D-03
  0.63605421D-02 -0.91377008D-02  0.57647659D-02 -0.83545412D-06  0.23168872D-05
  0.14651568D-01  0.24851832D-01  0.28292932D-01 -0.14587802D-04  0.14665383D-01
  0.24875265D-01  0.28319610D-01 -0.13450193D-04  0.27392298D-02  0.46462522D-02
  0.52895939D-02 -0.22500564D-03
MO    8     MO 0.0        OCC NO =    2.0000000  ORB. ENERGY =   -0.836207
 -0.98902077D-02 -0.18217598D-01 -0.29290154D-01 -0.37799787D-01 -0.32083931D-01
 -0.11058094D-01 -0.10982027D-01 -0.39151028D-02  0.13789702D-01  0.76688873D-01
  0.56439912D-01  0.30507744D-01 -0.46179820D-01 -0.33986481D-01 -0.18370881D-01
 -0.93050587D-05 -0.68481472D-05 -0.37016629D-05  0.40190663D-03 -0.27676949D-03
  0.10145986D-02  0.10450058D-06 -0.55644986D-02  0.90436789D-02 -0.20965821D-02
 -0.20221468D-01 -0.14113740D-05  0.33007101D-05  0.12853141D-02  0.21801360D-02
  0.24820078D-02 -0.22267125D-03  0.21789045D-01  0.40135059D-01  0.64528927D-01
  0.83276438D-01  0.70683877D-01  0.24362007D-01  0.24190663D-01  0.86239937D-02
 -0.30375270D-01 -0.30144561D-01 -0.22185179D-01 -0.11991865D-01 -0.95008243D-02
 -0.69922228D-02 -0.37795408D-02  0.33702457D-05  0.24803646D-05  0.13407237D-05
 -0.88563625D-03  0.18264313D-02  0.29526450D-03 -0.20451936D-06  0.73488055D-04
 -0.77438005D-02  0.46188174D-02  0.73908437D-03  0.99801635D-06 -0.13510714D-05
 -0.28312940D-02 -0.48024106D-02 -0.54673747D-02  0.49527828D-03 -0.11872644D-01
 -0.21869214D-01 -0.35161202D-01 -0.45376543D-01 -0.38514976D-01 -0.13274627D-01
 -0.13184460D-01 -0.47002722D-02  0.16555211D-01  0.55092038D-01  0.40545514D-01
  0.21916267D-01  0.64631618D-01  0.47566259D-01  0.25711225D-01 -0.12900964D-05
 -0.94945884D-06 -0.51321568D-06  0.48260262D-03  0.14904080D-03 -0.11625968D-02
 -0.56710611D-07 -0.86847831D-02  0.12862308D-01 -0.25168619D-02  0.96960555D-02
  0.10839842D-05  0.56969014D-06 -0.11531771D+00 -0.21236719D+00 -0.34312753D+00
 -0.44908017D+00 -0.38467741D+00 -0.13233349D+00 -0.18146409D+00 -0.89706924D-01
  0.23664112D+00  0.84675940D-01  0.65921571D-01  0.31301894D-01  0.99212325D-02
  0.77238380D-02  0.36675515D-02 -0.65525388D-05 -0.51012561D-05 -0.24222568D-05
  0.78146325D-01  0.56789016D-02  0.63430970D-03 -0.45316261D-06  0.88034842D-02