nmr                                                                     
SP        RB3LYP                                                      CC-pVTZ             
Number of atoms                            I               12
Info1-9                                    I   N=           9
          11           9           0           0           0         111
           1          18        -502
Charge                                     I                0
Multiplicity                               I                1
Number of electrons                        I               42
Number of alpha electrons                  I               21
Number of beta electrons                   I               21
Number of basis functions                  I              264
Number of independent functions            I              264
Number of point charges in /Mol/           I                0
Number of translation vectors              I                0
Atomic numbers                             I   N=          12
           5           1           5           1           5           7
           7           1           7           1           1           1
Nuclear charges                            R   N=          12
  5.00000000E+00  1.00000000E+00  5.00000000E+00  1.00000000E+00  5.00000000E+00
  7.00000000E+00  7.00000000E+00  1.00000000E+00  7.00000000E+00  1.00000000E+00
  1.00000000E+00  1.00000000E+00
Current cartesian coordinates              R   N=          36
 -1.02499617E+00  2.54010843E+00 -1.04897530E-04 -1.86731548E+00  4.62867235E+00
 -1.01371449E-04  2.71334990E+00 -3.82716371E-01 -2.50962463E-04  4.94299443E+00
 -6.97107437E-01 -3.59753600E-04 -1.68770046E+00 -2.15749865E+00  2.26694497E-04
 -2.63365927E+00  3.71417112E-01  2.04218659E-04  1.63846514E+00  2.09445597E+00
 -2.28357987E-04  2.80860908E+00  3.59359981E+00 -3.73451389E-04  9.94994797E-01
 -2.46578841E+00  7.33293861E-05  1.70514797E+00 -4.23001255E+00  1.66952896E-04
 -4.51680917E+00  6.36900303E-01  4.09232225E-04 -3.07449782E+00 -3.93211229E+00
  5.59888396E-04
Force Field                                I                0
Int Atom Types                             I   N=          12
           0           0           0           0           0           0
           0           0           0           0           0           0
MM charges                                 R   N=          12
  0.00000000E+00  0.00000000E+00  0.00000000E+00  0.00000000E+00  0.00000000E+00
  0.00000000E+00  0.00000000E+00  0.00000000E+00  0.00000000E+00  0.00000000E+00
  0.00000000E+00  0.00000000E+00
Integer atomic weights                     I   N=          12
          11           1          11           1          11          14
          14           1          14           1           1           1
Real atomic weights                        R   N=          12
  1.10093053E+01  1.00782504E+00  1.10093053E+01  1.00782504E+00  1.10093053E+01
  1.40030740E+01  1.40030740E+01  1.00782504E+00  1.40030740E+01  1.00782504E+00
  1.00782504E+00  1.00782504E+00
Atom fragment info                         I   N=          12
           0           0           0           0           0           0
           0           0           0           0           0           0
Atom residue num                           I   N=          12
           0           0           0           0           0           0
           0           0           0           0           0           0
Nuclear spins                              I   N=          12
           3           1           3           1           3           2
           2           1           2           1           1           1
Nuclear ZEff                               R   N=          12
 -2.75000000E+00 -1.00000000E+00 -2.75000000E+00 -1.00000000E+00 -2.75000000E+00
 -4.55000000E+00 -4.55000000E+00 -1.00000000E+00 -4.55000000E+00 -1.00000000E+00
 -1.00000000E+00 -1.00000000E+00
Nuclear QMom                               R   N=          12
  4.05900000E+00  0.00000000E+00  4.05900000E+00  0.00000000E+00  4.05900000E+00
  2.04400000E+00  2.04400000E+00  0.00000000E+00  2.04400000E+00  0.00000000E+00
  0.00000000E+00  0.00000000E+00
Nuclear GFac                               R   N=          12
  2.68863700E+00  2.79284600E+00  2.68863700E+00  2.79284600E+00  2.68863700E+00
  4.03761000E-01  4.03761000E-01  2.79284600E+00  4.03761000E-01  2.79284600E+00
  2.79284600E+00  2.79284600E+00
MicOpt                                     I   N=          12
          -1          -1          -1          -1          -1          -1
          -1          -1          -1          -1          -1          -1
Number of contracted shells                I               96
Number of primitive shells                 I              204
Pure/Cartesian d shells                    I                0
Pure/Cartesian f shells                    I                0
Highest angular momentum                   I                3
Largest degree of contraction              I                8
Shell types                                I   N=          96
           0           0           0           0           1           1
           1          -2          -2          -3           0           0
           0           1           1          -2           0           0
           0           0           1           1           1          -2
          -2          -3           0           0           0           1
           1          -2           0           0           0           0
           1           1           1          -2          -2          -3
           0           0           0           0           1           1
           1          -2          -2          -3           0           0
           0           0           1           1           1          -2
          -2          -3           0           0           0           1
           1          -2           0           0           0           0
           1           1           1          -2          -2          -3
           0           0           0           1           1          -2
           0           0           0           1           1          -2
           0           0           0           1           1          -2
Number of primitives per shell             I   N=          96
           8           8           1           1           3           1
           1           1           1           1           3           1
           1           1           1           1           8           8
           1           1           3           1           1           1
           1           1           3           1           1           1
           1           1           8           8           1           1
           3           1           1           1           1           1
           8           8           1           1           3           1
           1           1           1           1           8           8
           1           1           3           1           1           1
           1           1           3           1           1           1
           1           1           8           8           1           1
           3           1           1           1           1           1
           3           1           1           1           1           1
           3           1           1           1           1           1
           3           1           1           1           1           1
Shell to atom map                          I   N=          96
           1           1           1           1           1           1
           1           1           1           1           2           2
           2           2           2           2           3           3
           3           3           3           3           3           3
           3           3           4           4           4           4
           4           4           5           5           5           5
           5           5           5           5           5           5
           6           6           6           6           6           6
           6           6           6           6           7           7
           7           7           7           7           7           7
           7           7           8           8           8           8
           8           8           9           9           9           9
           9           9           9           9           9           9
          10          10          10          10          10          10
          11          11          11          11          11          11
          12          12          12          12          12          12
Primitive exponents                        R   N=         204
  5.47300000E+03  8.20900000E+02  1.86800000E+02  5.28300000E+01  1.70800000E+01
  5.99900000E+00  2.20800000E+00  2.41500000E-01  5.47300000E+03  8.20900000E+02
  1.86800000E+02  5.28300000E+01  1.70800000E+01  5.99900000E+00  2.20800000E+00
  2.41500000E-01  5.87900000E-01  8.61000000E-02  1.20500000E+01  2.61300000E+00
  7.47500000E-01  2.38500000E-01  7.69800000E-02  6.61000000E-01  1.99000000E-01
  4.90000000E-01  3.38700000E+01  5.09500000E+00  1.15900000E+00  3.25800000E-01
  1.02700000E-01  1.40700000E+00  3.88000000E-01  1.05700000E+00  5.47300000E+03
  8.20900000E+02  1.86800000E+02  5.28300000E+01  1.70800000E+01  5.99900000E+00
  2.20800000E+00  2.41500000E-01  5.47300000E+03  8.20900000E+02  1.86800000E+02
  5.28300000E+01  1.70800000E+01  5.99900000E+00  2.20800000E+00  2.41500000E-01
  5.87900000E-01  8.61000000E-02  1.20500000E+01  2.61300000E+00  7.47500000E-01
  2.38500000E-01  7.69800000E-02  6.61000000E-01  1.99000000E-01  4.90000000E-01
  3.38700000E+01  5.09500000E+00  1.15900000E+00  3.25800000E-01  1.02700000E-01
  1.40700000E+00  3.88000000E-01  1.05700000E+00  5.47300000E+03  8.20900000E+02
  1.86800000E+02  5.28300000E+01  1.70800000E+01  5.99900000E+00  2.20800000E+00
  2.41500000E-01  5.47300000E+03  8.20900000E+02  1.86800000E+02  5.28300000E+01
  1.70800000E+01  5.99900000E+00  2.20800000E+00  2.41500000E-01  5.87900000E-01
  8.61000000E-02  1.20500000E+01  2.61300000E+00  7.47500000E-01  2.38500000E-01
  7.69800000E-02  6.61000000E-01  1.99000000E-01  4.90000000E-01  1.14200000E+04
  1.71200000E+03  3.89300000E+02  1.10000000E+02  3.55700000E+01  1.25400000E+01
  4.64400000E+00  5.11800000E-01  1.14200000E+04  1.71200000E+03  3.89300000E+02
  1.10000000E+02  3.55700000E+01  1.25400000E+01  4.64400000E+00  5.11800000E-01
  1.29300000E+00  1.78700000E-01  2.66300000E+01  5.94800000E+00  1.74200000E+00
  5.55000000E-01  1.72500000E-01  1.65400000E+00  4.69000000E-01  1.09300000E+00
  1.14200000E+04  1.71200000E+03  3.89300000E+02  1.10000000E+02  3.55700000E+01
  1.25400000E+01  4.64400000E+00  5.11800000E-01  1.14200000E+04  1.71200000E+03
  3.89300000E+02  1.10000000E+02  3.55700000E+01  1.25400000E+01  4.64400000E+00
  5.11800000E-01  1.29300000E+00  1.78700000E-01  2.66300000E+01  5.94800000E+00
  1.74200000E+00  5.55000000E-01  1.72500000E-01  1.65400000E+00  4.69000000E-01
  1.09300000E+00  3.38700000E+01  5.09500000E+00  1.15900000E+00  3.25800000E-01
  1.02700000E-01  1.40700000E+00  3.88000000E-01  1.05700000E+00  1.14200000E+04
  1.71200000E+03  3.89300000E+02  1.10000000E+02  3.55700000E+01  1.25400000E+01
  4.64400000E+00  5.11800000E-01  1.14200000E+04  1.71200000E+03  3.89300000E+02
  1.10000000E+02  3.55700000E+01  1.25400000E+01  4.64400000E+00  5.11800000E-01
  1.29300000E+00  1.78700000E-01  2.66300000E+01  5.94800000E+00  1.74200000E+00
  5.55000000E-01  1.72500000E-01  1.65400000E+00  4.69000000E-01  1.09300000E+00
  3.38700000E+01  5.09500000E+00  1.15900000E+00  3.25800000E-01  1.02700000E-01
  1.40700000E+00  3.88000000E-01  1.05700000E+00  3.38700000E+01  5.09500000E+00
  1.15900000E+00  3.25800000E-01  1.02700000E-01  1.40700000E+00  3.88000000E-01
  1.05700000E+00  3.38700000E+01  5.09500000E+00  1.15900000E+00  3.25800000E-01
  1.02700000E-01  1.40700000E+00  3.88000000E-01  1.05700000E+00
Contraction coefficients                   R   N=         204
  5.65940029E-04  4.37558318E-03  2.23816535E-02  8.61054810E-02  2.43259379E-01
  4.43648036E-01  3.48695536E-01 -9.73314878E-03 -1.96509404E-04 -1.52294788E-03
 -7.86739434E-03 -3.10256767E-02 -9.41122135E-02 -2.08800014E-01 -2.90946209E-01
  1.04567742E+00  1.00000000E+00  1.00000000E+00  3.89268857E-02  2.37086633E-01
  8.22797090E-01  1.00000000E+00  1.00000000E+00  1.00000000E+00  1.00000000E+00
  1.00000000E+00  2.54948632E-02  1.90362766E-01  8.52162022E-01  1.00000000E+00
  1.00000000E+00  1.00000000E+00  1.00000000E+00  1.00000000E+00  5.65940029E-04
  4.37558318E-03  2.23816535E-02  8.61054810E-02  2.43259379E-01  4.43648036E-01
  3.48695536E-01 -9.73314878E-03 -1.96509404E-04 -1.52294788E-03 -7.86739434E-03
 -3.10256767E-02 -9.41122135E-02 -2.08800014E-01 -2.90946209E-01  1.04567742E+00
  1.00000000E+00  1.00000000E+00  3.89268857E-02  2.37086633E-01  8.22797090E-01
  1.00000000E+00  1.00000000E+00  1.00000000E+00  1.00000000E+00  1.00000000E+00
  2.54948632E-02  1.90362766E-01  8.52162022E-01  1.00000000E+00  1.00000000E+00
  1.00000000E+00  1.00000000E+00  1.00000000E+00  5.65940029E-04  4.37558318E-03
  2.23816535E-02  8.61054810E-02  2.43259379E-01  4.43648036E-01  3.48695536E-01
 -9.73314878E-03 -1.96509404E-04 -1.52294788E-03 -7.86739434E-03 -3.10256767E-02
 -9.41122135E-02 -2.08800014E-01 -2.90946209E-01  1.04567742E+00  1.00000000E+00
  1.00000000E+00  3.89268857E-02  2.37086633E-01  8.22797090E-01  1.00000000E+00
  1.00000000E+00  1.00000000E+00  1.00000000E+00  1.00000000E+00  5.34980914E-04
  4.13766310E-03  2.12509149E-02  8.25762988E-02  2.38413273E-01  4.43431666E-01
  3.55431909E-01 -8.70290176E-03 -1.98776985E-04 -1.54700349E-03 -7.99256330E-03
 -3.20255651E-02 -9.91102048E-02 -2.28292775E-01 -2.98182763E-01  1.03700052E+00
  1.00000000E+00  1.00000000E+00  3.98072123E-02  2.49002660E-01  8.10479727E-01
  1.00000000E+00  1.00000000E+00  1.00000000E+00  1.00000000E+00  1.00000000E+00
  5.34980914E-04  4.13766310E-03  2.12509149E-02  8.25762988E-02  2.38413273E-01
  4.43431666E-01  3.55431909E-01 -8.70290176E-03 -1.98776985E-04 -1.54700349E-03
 -7.99256330E-03 -3.20255651E-02 -9.91102048E-02 -2.28292775E-01 -2.98182763E-01
  1.03700052E+00  1.00000000E+00  1.00000000E+00  3.98072123E-02  2.49002660E-01
  8.10479727E-01  1.00000000E+00  1.00000000E+00  1.00000000E+00  1.00000000E+00
  1.00000000E+00  2.54948632E-02  1.90362766E-01  8.52162022E-01  1.00000000E+00
  1.00000000E+00  1.00000000E+00  1.00000000E+00  1.00000000E+00  5.34980914E-04
  4.13766310E-03  2.12509149E-02  8.25762988E-02  2.38413273E-01  4.43431666E-01
  3.55431909E-01 -8.70290176E-03 -1.98776985E-04 -1.54700349E-03 -7.99256330E-03
 -3.20255651E-02 -9.91102048E-02 -2.28292775E-01 -2.98182763E-01  1.03700052E+00
  1.00000000E+00  1.00000000E+00  3.98072123E-02  2.49002660E-01  8.10479727E-01
  1.00000000E+00  1.00000000E+00  1.00000000E+00  1.00000000E+00  1.00000000E+00
  2.54948632E-02  1.90362766E-01  8.52162022E-01  1.00000000E+00  1.00000000E+00
  1.00000000E+00  1.00000000E+00  1.00000000E+00  2.54948632E-02  1.90362766E-01
  8.52162022E-01  1.00000000E+00  1.00000000E+00  1.00000000E+00  1.00000000E+00
  1.00000000E+00  2.54948632E-02  1.90362766E-01  8.52162022E-01  1.00000000E+00
  1.00000000E+00  1.00000000E+00  1.00000000E+00  1.00000000E+00
Coordinates of each shell                  R   N=         288
 -1.02499617E+00  2.54010843E+00 -1.04897530E-04 -1.02499617E+00  2.54010843E+00
 -1.04897530E-04 -1.02499617E+00  2.54010843E+00 -1.04897530E-04 -1.02499617E+00
  2.54010843E+00 -1.04897530E-04 -1.02499617E+00  2.54010843E+00 -1.04897530E-04
 -1.02499617E+00  2.54010843E+00 -1.04897530E-04 -1.02499617E+00  2.54010843E+00
 -1.04897530E-04 -1.02499617E+00  2.54010843E+00 -1.04897530E-04 -1.02499617E+00
  2.54010843E+00 -1.04897530E-04 -1.02499617E+00  2.54010843E+00 -1.04897530E-04
 -1.86731548E+00  4.62867235E+00 -1.01371449E-04 -1.86731548E+00  4.62867235E+00
 -1.01371449E-04 -1.86731548E+00  4.62867235E+00 -1.01371449E-04 -1.86731548E+00
  4.62867235E+00 -1.01371449E-04 -1.86731548E+00  4.62867235E+00 -1.01371449E-04
 -1.86731548E+00  4.62867235E+00 -1.01371449E-04  2.71334990E+00 -3.82716371E-01
 -2.50962463E-04  2.71334990E+00 -3.82716371E-01 -2.50962463E-04  2.71334990E+00
 -3.82716371E-01 -2.50962463E-04  2.71334990E+00 -3.82716371E-01 -2.50962463E-04
  2.71334990E+00 -3.82716371E-01 -2.50962463E-04  2.71334990E+00 -3.82716371E-01
 -2.50962463E-04  2.71334990E+00 -3.82716371E-01 -2.50962463E-04  2.71334990E+00
 -3.82716371E-01 -2.50962463E-04  2.71334990E+00 -3.82716371E-01 -2.50962463E-04
  2.71334990E+00 -3.82716371E-01 -2.50962463E-04  4.94299443E+00 -6.97107437E-01
 -3.59753600E-04  4.94299443E+00 -6.97107437E-01 -3.59753600E-04  4.94299443E+00
 -6.97107437E-01 -3.59753600E-04  4.94299443E+00 -6.97107437E-01 -3.59753600E-04
  4.94299443E+00 -6.97107437E-01 -3.59753600E-04  4.94299443E+00 -6.97107437E-01
 -3.59753600E-04 -1.68770046E+00 -2.15749865E+00  2.26694497E-04 -1.68770046E+00
 -2.15749865E+00  2.26694497E-04 -1.68770046E+00 -2.15749865E+00  2.26694497E-04
 -1.68770046E+00 -2.15749865E+00  2.26694497E-04 -1.68770046E+00 -2.15749865E+00
  2.26694497E-04 -1.68770046E+00 -2.15749865E+00  2.26694497E-04 -1.68770046E+00
 -2.15749865E+00  2.26694497E-04 -1.68770046E+00 -2.15749865E+00  2.26694497E-04
 -1.68770046E+00 -2.15749865E+00  2.26694497E-04 -1.68770046E+00 -2.15749865E+00
  2.26694497E-04 -2.63365927E+00  3.71417112E-01  2.04218659E-04 -2.63365927E+00
  3.71417112E-01  2.04218659E-04 -2.63365927E+00  3.71417112E-01  2.04218659E-04
 -2.63365927E+00  3.71417112E-01  2.04218659E-04 -2.63365927E+00  3.71417112E-01
  2.04218659E-04 -2.63365927E+00  3.71417112E-01  2.04218659E-04 -2.63365927E+00
  3.71417112E-01  2.04218659E-04 -2.63365927E+00  3.71417112E-01  2.04218659E-04
 -2.63365927E+00  3.71417112E-01  2.04218659E-04 -2.63365927E+00  3.71417112E-01
  2.04218659E-04  1.63846514E+00  2.09445597E+00 -2.28357987E-04  1.63846514E+00
  2.09445597E+00 -2.28357987E-04  1.63846514E+00  2.09445597E+00 -2.28357987E-04
  1.63846514E+00  2.09445597E+00 -2.28357987E-04  1.63846514E+00  2.09445597E+00
 -2.28357987E-04  1.63846514E+00  2.09445597E+00 -2.28357987E-04  1.63846514E+00
  2.09445597E+00 -2.28357987E-04  1.63846514E+00  2.09445597E+00 -2.28357987E-04
  1.63846514E+00  2.09445597E+00 -2.28357987E-04  1.63846514E+00  2.09445597E+00
 -2.28357987E-04  2.80860908E+00  3.59359981E+00 -3.73451389E-04  2.80860908E+00
  3.59359981E+00 -3.73451389E-04  2.80860908E+00  3.59359981E+00 -3.73451389E-04
  2.80860908E+00  3.59359981E+00 -3.73451389E-04  2.80860908E+00  3.59359981E+00
 -3.73451389E-04  2.80860908E+00  3.59359981E+00 -3.73451389E-04  9.94994797E-01
 -2.46578841E+00  7.33293861E-05  9.94994797E-01 -2.46578841E+00  7.33293861E-05
  9.94994797E-01 -2.46578841E+00  7.33293861E-05  9.94994797E-01 -2.46578841E+00
  7.33293861E-05  9.94994797E-01 -2.46578841E+00  7.33293861E-05  9.94994797E-01
 -2.46578841E+00  7.33293861E-05  9.94994797E-01 -2.46578841E+00  7.33293861E-05
  9.94994797E-01 -2.46578841E+00  7.33293861E-05  9.94994797E-01 -2.46578841E+00
  7.33293861E-05  9.94994797E-01 -2.46578841E+00  7.33293861E-05  1.70514797E+00
 -4.23001255E+00  1.66952896E-04  1.70514797E+00 -4.23001255E+00  1.66952896E-04
  1.70514797E+00 -4.23001255E+00  1.66952896E-04  1.70514797E+00 -4.23001255E+00
  1.66952896E-04  1.70514797E+00 -4.23001255E+00  1.66952896E-04  1.70514797E+00
 -4.23001255E+00  1.66952896E-04 -4.51680917E+00  6.36900303E-01  4.09232225E-04
 -4.51680917E+00  6.36900303E-01  4.09232225E-04 -4.51680917E+00  6.36900303E-01
  4.09232225E-04 -4.51680917E+00  6.36900303E-01  4.09232225E-04 -4.51680917E+00
  6.36900303E-01  4.09232225E-04 -4.51680917E+00  6.36900303E-01  4.09232225E-04
 -3.07449782E+00 -3.93211229E+00  5.59888396E-04 -3.07449782E+00 -3.93211229E+00
  5.59888396E-04 -3.07449782E+00 -3.93211229E+00  5.59888396E-04 -3.07449782E+00
 -3.93211229E+00  5.59888396E-04 -3.07449782E+00 -3.93211229E+00  5.59888396E-04
 -3.07449782E+00 -3.93211229E+00  5.59888396E-04
Constraint Structure                       R   N=          36
 -1.02499617E+00  2.54010843E+00 -1.04897530E-04 -1.86731548E+00  4.62867235E+00
 -1.01371449E-04  2.71334990E+00 -3.82716371E-01 -2.50962463E-04  4.94299443E+00
 -6.97107437E-01 -3.59753600E-04 -1.68770046E+00 -2.15749865E+00  2.26694497E-04
 -2.63365927E+00  3.71417112E-01  2.04218659E-04  1.63846514E+00  2.09445597E+00
 -2.28357987E-04  2.80860908E+00  3.59359981E+00 -3.73451389E-04  9.94994797E-01
 -2.46578841E+00  7.33293861E-05  1.70514797E+00 -4.23001255E+00  1.66952896E-04
 -4.51680917E+00  6.36900303E-01  4.09232225E-04 -3.07449782E+00 -3.93211229E+00
  5.59888396E-04
Num ILSW                                   I              100
ILSW                                       I   N=         100
           0           0           0           0           2           0
           0           0           0           0         402          -1
           0           0           0           0           0           0
           0           0           0           0           0           0
           1           0           0           0           0           0
           0           0      100000           0          -1           0
           0           0           0           0           0           0
           0           0           0           1           0           0
           0           0           1           0           0           0
           0           0           4          40           0           0
           0           0           5           0           0           0
           0           0           0           0           0           0
           0           0           0           0           0           0
           0           0           0           0           0           0
           0           0           0           0           0           0
           0           0           0           0           0           0
           0           0           0           0
Num RLSW                                   I               40
RLSW                                       R   N=          40
  8.00000000E-01  7.20000000E-01  1.00000000E+00  8.10000000E-01  2.00000000E-01
  0.00000000E+00  0.00000000E+00  1.00000000E+00  0.00000000E+00  0.00000000E+00
  0.00000000E+00  0.00000000E+00  1.00000000E+00  0.00000000E+00  0.00000000E+00
  0.00000000E+00  0.00000000E+00  1.00000000E+00  0.00000000E+00  0.00000000E+00
  0.00000000E+00  0.00000000E+00  1.00000000E+00  0.00000000E+00  0.00000000E+00
  0.00000000E+00  0.00000000E+00  1.00000000E+00  0.00000000E+00  0.00000000E+00
  0.00000000E+00  0.00000000E+00  1.00000000E+00  0.00000000E+00  0.00000000E+00
  0.00000000E+00  0.00000000E+00  0.00000000E+00  1.00000000E+00  1.00000000E+00
MxBond                                     I                3
NBond                                      I   N=          12
           3           1           3           1           3           3
           3           1           3           1           1           1
IBond                                      I   N=          36
           2           6           7           1           0           0
           4           7           9           3           0           0
           6           9          12           1           5          11
           1           3           8           7           0           0
           3           5          10           9           0           0
           6           0           0           5           0           0
RBond                                      R   N=          36
  1.00000000E+00  1.00000000E+00  1.00000000E+00  1.00000000E+00  0.00000000E+00
  0.00000000E+00  1.00000000E+00  1.00000000E+00  1.00000000E+00  1.00000000E+00
  0.00000000E+00  0.00000000E+00  1.00000000E+00  1.00000000E+00  1.00000000E+00
  1.00000000E+00  1.00000000E+00  1.00000000E+00  1.00000000E+00  1.00000000E+00
  1.00000000E+00  1.00000000E+00  0.00000000E+00  0.00000000E+00  1.00000000E+00
  1.00000000E+00  1.00000000E+00  1.00000000E+00  0.00000000E+00  0.00000000E+00
  1.00000000E+00  0.00000000E+00  0.00000000E+00  1.00000000E+00  0.00000000E+00
  0.00000000E+00
Virial Ratio                               R      2.007067560952614E+00
SCF Energy                                 R     -2.427699242156447E+02
Total Energy                               R     -2.427699242156447E+02
RMS Density                                R      4.380043330367878E-10
External E-field                           R   N=          35
  0.00000000E+00  0.00000000E+00  0.00000000E+00  0.00000000E+00  0.00000000E+00
  0.00000000E+00  0.00000000E+00  0.00000000E+00  0.00000000E+00  0.00000000E+00
  0.00000000E+00  0.00000000E+00  0.00000000E+00  0.00000000E+00  0.00000000E+00
  0.00000000E+00  0.00000000E+00  0.00000000E+00  0.00000000E+00  0.00000000E+00
  0.00000000E+00  0.00000000E+00  0.00000000E+00  0.00000000E+00  0.00000000E+00
  0.00000000E+00  0.00000000E+00  0.00000000E+00  0.00000000E+00  0.00000000E+00
  0.00000000E+00  0.00000000E+00  0.00000000E+00  0.00000000E+00  0.00000000E+00
IOpCl                                      I                0
IROHF                                      I                0
Alpha Orbital Energies                     R   N=         264
 -1.43032796E+01 -1.43032609E+01 -1.43032471E+01 -6.74542912E+00 -6.74542146E+00
 -6.74540039E+00 -8.98163085E-01 -8.44113550E-01 -8.44050923E-01 -5.60484057E-01
 -5.33838500E-01 -5.33749327E-01 -4.43470812E-01 -4.43413543E-01 -4.43102087E-01
 -3.95015553E-01 -3.73508329E-01 -3.29666737E-01 -3.29627256E-01 -2.88261659E-01
 -2.88203420E-01  6.74625878E-03  6.75644581E-03  4.32711705E-02  5.67607361E-02
  5.67846884E-02  8.07923861E-02  9.79741952E-02  1.18353948E-01  1.18403789E-01
  1.39886688E-01  1.77677230E-01  1.80772129E-01  1.80801485E-01  2.02973610E-01
  2.02990769E-01  2.17908275E-01  2.19501754E-01  2.19546804E-01  2.78096936E-01
  2.90113865E-01  2.90162805E-01  3.24474132E-01  3.30308150E-01  3.30330345E-01
  3.82440356E-01  4.17690158E-01  4.17772087E-01  4.30744645E-01  4.56798336E-01
  4.56812997E-01  4.80327351E-01  4.89257359E-01  5.15028369E-01  5.15048582E-01
  5.30829091E-01  5.30861135E-01  5.67536134E-01  5.67651971E-01  5.68634394E-01
  5.90776346E-01  6.08293683E-01  6.34698223E-01  6.43053953E-01  6.43093247E-01
  6.65924351E-01  6.65959903E-01  7.06194750E-01  7.06213229E-01  7.48716261E-01
  7.80544173E-01  7.80708318E-01  8.14006953E-01  8.68867612E-01  8.69035494E-01
  8.93139582E-01  8.93909767E-01  8.97920524E-01  8.97986612E-01  9.14577368E-01
  9.14683583E-01  9.83036629E-01  1.08382608E+00  1.11046195E+00  1.11065784E+00
  1.11907211E+00  1.13852099E+00  1.13858710E+00  1.19896038E+00  1.19945415E+00
  1.25933483E+00  1.25961952E+00  1.26962816E+00  1.31732407E+00  1.34083013E+00
  1.34094424E+00  1.34649780E+00  1.35176304E+00  1.35183680E+00  1.37506784E+00
  1.37509440E+00  1.38701813E+00  1.39299920E+00  1.43942198E+00  1.43943204E+00
  1.44263655E+00  1.45093623E+00  1.45099704E+00  1.50316273E+00  1.53704040E+00
  1.59656778E+00  1.59673819E+00  1.62112162E+00  1.62698026E+00  1.62725964E+00
  1.74463415E+00  1.79200769E+00  1.79224049E+00  1.86629946E+00  1.86633312E+00
  1.86680771E+00  1.89077809E+00  1.89078728E+00  1.93948733E+00  1.93953037E+00
  1.99450242E+00  2.00412254E+00  2.00416238E+00  2.01321305E+00  2.07046236E+00
  2.09695131E+00  2.09711339E+00  2.12231968E+00  2.12242235E+00  2.12631860E+00
  2.17320776E+00  2.21362193E+00  2.22108948E+00  2.22140679E+00  2.27381298E+00
  2.27386839E+00  2.27739246E+00  2.27821976E+00  2.28538629E+00  2.28567813E+00
  2.41544648E+00  2.49149457E+00  2.49169654E+00  2.50538244E+00  2.56799415E+00
  2.56823550E+00  2.57374508E+00  2.62807205E+00  2.62831184E+00  2.78629651E+00
  2.78647747E+00  2.81241370E+00  2.88919202E+00  2.88973751E+00  3.16228899E+00
  3.18401559E+00  3.18424226E+00  3.20949270E+00  3.21032121E+00  3.21048824E+00
  3.36243762E+00  3.36256367E+00  3.40942780E+00  3.43213038E+00  3.43237650E+00
  3.43625211E+00  3.43637856E+00  3.44381897E+00  3.51435422E+00  3.51455326E+00
  3.54602226E+00  3.54820671E+00  3.65836271E+00  3.65858745E+00  3.66910146E+00
  3.69850290E+00  3.73877665E+00  3.73883201E+00  3.75545184E+00  3.75559496E+00
  3.81293428E+00  3.82239393E+00  3.91132699E+00  3.91181399E+00  3.91193917E+00
  3.91438307E+00  3.91444692E+00  4.00899569E+00  4.00944580E+00  4.01897836E+00
  4.01906481E+00  4.06026416E+00  4.07796622E+00  4.09670277E+00  4.09675554E+00
  4.21521882E+00  4.27902113E+00  4.28867480E+00  4.28872295E+00  4.29512879E+00
  4.37088990E+00  4.37094327E+00  4.37310947E+00  4.42140521E+00  4.42144672E+00
  4.46899968E+00  4.46912092E+00  4.50827634E+00  4.56968778E+00  4.56987281E+00
  4.57264346E+00  4.63495346E+00  4.63539194E+00  4.70612093E+00  4.70641374E+00
  4.71509751E+00  4.80932119E+00  4.84314978E+00  4.86578188E+00  4.88742695E+00
  4.88754528E+00  4.93820430E+00  4.93844939E+00  4.93857359E+00  5.01245200E+00
  5.01251818E+00  5.01878037E+00  5.01922820E+00  5.01928995E+00  5.05182934E+00
  5.05227189E+00  5.12983177E+00  5.23447970E+00  5.23466593E+00  5.36195894E+00
  5.41068625E+00  5.45402602E+00  5.45410745E+00  5.55254476E+00  5.55261641E+00
  5.63141712E+00  5.63168305E+00  5.65076740E+00  5.73765211E+00  5.83986053E+00
  6.03123431E+00  6.03167058E+00  6.15985454E+00  6.16026221E+00  6.27378816E+00
  6.37102014E+00  6.37120890E+00  6.43858959E+00  9.01104172E+00  1.00938385E+01
  1.00945076E+01  1.23526462E+01  1.23528603E+01  1.24808775E+01
Alpha MO coefficients                      R   N=       69696
 -6.53235962E-05 -4.20273023E-06  7.48253973E-04 -1.00844527E-03 -1.35358239E-04
 -2.11341130E-04  3.09937041E-08 -1.80838691E-03 -2.79251258E-03  3.11648615E-07