benz                                                                    
Freq      RB3LYP                                                      CC-pVTZ             
Number of atoms                            I               12
Info1-9                                    I   N=           9
          22          22        1002           0           0         101
           6          18        -502
Charge                                     I                0
Multiplicity                               I                1
Number of electrons                        I               42
Number of alpha electrons                  I               21
Number of beta electrons                   I               21
Number of basis functions                  I              264
Number of independent functions            I              264
Number of point charges in /Mol/           I                0
Number of translation vectors              I                0
Atomic numbers                             I   N=          12
           5           1           5           1           5           7
           7           1           7           1           1           1
Nuclear charges                            R   N=          12
  5.00000000E+00  1.00000000E+00  5.00000000E+00  1.00000000E+00  5.00000000E+00
  7.00000000E+00  7.00000000E+00  1.00000000E+00  7.00000000E+00  1.00000000E+00
  1.00000000E+00  1.00000000E+00
Current cartesian coordinates              R   N=          36
  1.02498996E+00  2.54011094E+00  1.04897530E-04  1.86730416E+00  4.62867692E+00
  1.01371449E-04 -2.71334896E+00 -3.82723008E-01  2.50962463E-04 -4.94299272E+00
 -6.97119526E-01  3.59753600E-04  1.68770574E+00 -2.15749452E+00 -2.26694497E-04
  2.63365836E+00  3.71423552E-01 -2.04218659E-04 -1.63847026E+00  2.09445196E+00
  2.28357987E-04 -2.80861787E+00  3.59359294E+00  3.73451389E-04 -9.94988766E-01
 -2.46579084E+00 -7.33293863E-05 -1.70513762E+00 -4.23001672E+00 -1.66952896E-04
  4.51680761E+00  6.36911348E-01 -4.09232225E-04  3.07450744E+00 -3.93210477E+00
 -5.59888396E-04
Force Field                                I                0
Int Atom Types                             I   N=          12
           0           0           0           0           0           0
           0           0           0           0           0           0
MM charges                                 R   N=          12
  0.00000000E+00  0.00000000E+00  0.00000000E+00  0.00000000E+00  0.00000000E+00
  0.00000000E+00  0.00000000E+00  0.00000000E+00  0.00000000E+00  0.00000000E+00
  0.00000000E+00  0.00000000E+00
Integer atomic weights                     I   N=          12
          11           1          11           1          11          14
          14           1          14           1           1           1
Real atomic weights                        R   N=          12
  1.10093053E+01  1.00782504E+00  1.10093053E+01  1.00782504E+00  1.10093053E+01
  1.40030740E+01  1.40030740E+01  1.00782504E+00  1.40030740E+01  1.00782504E+00
  1.00782504E+00  1.00782504E+00
Atom fragment info                         I   N=          12
           0           0           0           0           0           0
           0           0           0           0           0           0
Atom residue num                           I   N=          12
           0           0           0           0           0           0
           0           0           0           0           0           0
Nuclear spins                              I   N=          12
           3           1           3           1           3           2
           2           1           2           1           1           1
Nuclear ZEff                               R   N=          12
 -2.75000000E+00 -1.00000000E+00 -2.75000000E+00 -1.00000000E+00 -2.75000000E+00
 -4.55000000E+00 -4.55000000E+00 -1.00000000E+00 -4.55000000E+00 -1.00000000E+00
 -1.00000000E+00 -1.00000000E+00
Nuclear QMom                               R   N=          12
  4.05900000E+00  0.00000000E+00  4.05900000E+00  0.00000000E+00  4.05900000E+00
  2.04400000E+00  2.04400000E+00  0.00000000E+00  2.04400000E+00  0.00000000E+00
  0.00000000E+00  0.00000000E+00
Nuclear GFac                               R   N=          12
  2.68863700E+00  2.79284600E+00  2.68863700E+00  2.79284600E+00  2.68863700E+00
  4.03761000E-01  4.03761000E-01  2.79284600E+00  4.03761000E-01  2.79284600E+00
  2.79284600E+00  2.79284600E+00
MicOpt                                     I   N=          12
          -1          -1          -1          -1          -1          -1
          -1          -1          -1          -1          -1          -1
Number of contracted shells                I               96
Number of primitive shells                 I              186
Pure/Cartesian d shells                    I                0
Pure/Cartesian f shells                    I                0
Highest angular momentum                   I                3
Largest degree of contraction              I                7
Shell types                                I   N=          96
           0           0           0           0           1           1
           1          -2          -2          -3           0           0
           0           1           1          -2           0           0
           0           0           1           1           1          -2
          -2          -3           0           0           0           1
           1          -2           0           0           0           0
           1           1           1          -2          -2          -3
           0           0           0           0           1           1
           1          -2          -2          -3           0           0
           0           0           1           1           1          -2
          -2          -3           0           0           0           1
           1          -2           0           0           0           0
           1           1           1          -2          -2          -3
           0           0           0           1           1          -2
           0           0           0           1           1          -2
           0           0           0           1           1          -2
Number of primitives per shell             I   N=          96
           7           6           1           1           3           1
           1           1           1           1           3           1
           1           1           1           1           7           6
           1           1           3           1           1           1
           1           1           3           1           1           1
           1           1           7           6           1           1
           3           1           1           1           1           1
           7           6           1           1           3           1
           1           1           1           1           7           6
           1           1           3           1           1           1
           1           1           3           1           1           1
           1           1           7           6           1           1
           3           1           1           1           1           1
           3           1           1           1           1           1
           3           1           1           1           1           1
           3           1           1           1           1           1
Shell to atom map                          I   N=          96
           1           1           1           1           1           1
           1           1           1           1           2           2
           2           2           2           2           3           3
           3           3           3           3           3           3
           3           3           4           4           4           4
           4           4           5           5           5           5
           5           5           5           5           5           5
           6           6           6           6           6           6
           6           6           6           6           7           7
           7           7           7           7           7           7
           7           7           8           8           8           8
           8           8           9           9           9           9
           9           9           9           9           9           9
          10          10          10          10          10          10
          11          11          11          11          11          11
          12          12          12          12          12          12
Primitive exponents                        R   N=         186
  5.47300000E+03  8.20900000E+02  1.86800000E+02  5.28300000E+01  1.70800000E+01
  5.99900000E+00  2.20800000E+00  1.86800000E+02  5.28300000E+01  1.70800000E+01
  5.99900000E+00  2.20800000E+00  2.41500000E-01  5.87900000E-01  8.61000000E-02
  1.20500000E+01  2.61300000E+00  7.47500000E-01  2.38500000E-01  7.69800000E-02
  6.61000000E-01  1.99000000E-01  4.90000000E-01  3.38700000E+01  5.09500000E+00
  1.15900000E+00  3.25800000E-01  1.02700000E-01  1.40700000E+00  3.88000000E-01
  1.05700000E+00  5.47300000E+03  8.20900000E+02  1.86800000E+02  5.28300000E+01
  1.70800000E+01  5.99900000E+00  2.20800000E+00  1.86800000E+02  5.28300000E+01
  1.70800000E+01  5.99900000E+00  2.20800000E+00  2.41500000E-01  5.87900000E-01
  8.61000000E-02  1.20500000E+01  2.61300000E+00  7.47500000E-01  2.38500000E-01
  7.69800000E-02  6.61000000E-01  1.99000000E-01  4.90000000E-01  3.38700000E+01
  5.09500000E+00  1.15900000E+00  3.25800000E-01  1.02700000E-01  1.40700000E+00
  3.88000000E-01  1.05700000E+00  5.47300000E+03  8.20900000E+02  1.86800000E+02
  5.28300000E+01  1.70800000E+01  5.99900000E+00  2.20800000E+00  1.86800000E+02
  5.28300000E+01  1.70800000E+01  5.99900000E+00  2.20800000E+00  2.41500000E-01
  5.87900000E-01  8.61000000E-02  1.20500000E+01  2.61300000E+00  7.47500000E-01
  2.38500000E-01  7.69800000E-02  6.61000000E-01  1.99000000E-01  4.90000000E-01
  1.14200000E+04  1.71200000E+03  3.89300000E+02  1.10000000E+02  3.55700000E+01
  1.25400000E+01  4.64400000E+00  3.89300000E+02  1.10000000E+02  3.55700000E+01
  1.25400000E+01  4.64400000E+00  5.11800000E-01  1.29300000E+00  1.78700000E-01
  2.66300000E+01  5.94800000E+00  1.74200000E+00  5.55000000E-01  1.72500000E-01
  1.65400000E+00  4.69000000E-01  1.09300000E+00  1.14200000E+04  1.71200000E+03
  3.89300000E+02  1.10000000E+02  3.55700000E+01  1.25400000E+01  4.64400000E+00
  3.89300000E+02  1.10000000E+02  3.55700000E+01  1.25400000E+01  4.64400000E+00
  5.11800000E-01  1.29300000E+00  1.78700000E-01  2.66300000E+01  5.94800000E+00
  1.74200000E+00  5.55000000E-01  1.72500000E-01  1.65400000E+00  4.69000000E-01
  1.09300000E+00  3.38700000E+01  5.09500000E+00  1.15900000E+00  3.25800000E-01
  1.02700000E-01  1.40700000E+00  3.88000000E-01  1.05700000E+00  1.14200000E+04
  1.71200000E+03  3.89300000E+02  1.10000000E+02  3.55700000E+01  1.25400000E+01
  4.64400000E+00  3.89300000E+02  1.10000000E+02  3.55700000E+01  1.25400000E+01
  4.64400000E+00  5.11800000E-01  1.29300000E+00  1.78700000E-01  2.66300000E+01
  5.94800000E+00  1.74200000E+00  5.55000000E-01  1.72500000E-01  1.65400000E+00
  4.69000000E-01  1.09300000E+00  3.38700000E+01  5.09500000E+00  1.15900000E+00
  3.25800000E-01  1.02700000E-01  1.40700000E+00  3.88000000E-01  1.05700000E+00
  3.38700000E+01  5.09500000E+00  1.15900000E+00  3.25800000E-01  1.02700000E-01
  1.40700000E+00  3.88000000E-01  1.05700000E+00  3.38700000E+01  5.09500000E+00
  1.15900000E+00  3.25800000E-01  1.02700000E-01  1.40700000E+00  3.88000000E-01
  1.05700000E+00
Contraction coefficients                   R   N=         186
  5.65427567E-04  4.37158720E-03  2.23604922E-02  8.60169921E-02  2.42949111E-01
  4.42735475E-01  3.46794954E-01 -7.95883004E-05 -1.08704786E-03 -9.72063443E-03
 -5.59767619E-02 -1.74541868E-01  1.07278281E+00  1.00000000E+00  1.00000000E+00
  3.89268857E-02  2.37086633E-01  8.22797090E-01  1.00000000E+00  1.00000000E+00
  1.00000000E+00  1.00000000E+00  1.00000000E+00  2.54948632E-02  1.90362766E-01
  8.52162022E-01  1.00000000E+00  1.00000000E+00  1.00000000E+00  1.00000000E+00
  1.00000000E+00  5.65427567E-04  4.37158720E-03  2.23604922E-02  8.60169921E-02
  2.42949111E-01  4.42735475E-01  3.46794954E-01 -7.95883004E-05 -1.08704786E-03
 -9.72063443E-03 -5.59767619E-02 -1.74541868E-01  1.07278281E+00  1.00000000E+00
  1.00000000E+00  3.89268857E-02  2.37086633E-01  8.22797090E-01  1.00000000E+00
  1.00000000E+00  1.00000000E+00  1.00000000E+00  1.00000000E+00  2.54948632E-02
  1.90362766E-01  8.52162022E-01  1.00000000E+00  1.00000000E+00  1.00000000E+00
  1.00000000E+00  1.00000000E+00  5.65427567E-04  4.37158720E-03  2.23604922E-02
  8.60169921E-02  2.42949111E-01  4.42735475E-01  3.46794954E-01 -7.95883004E-05
 -1.08704786E-03 -9.72063443E-03 -5.59767619E-02 -1.74541868E-01  1.07278281E+00
  1.00000000E+00  1.00000000E+00  3.89268857E-02  2.37086633E-01  8.22797090E-01
  1.00000000E+00  1.00000000E+00  1.00000000E+00  1.00000000E+00  1.00000000E+00
  5.34563860E-04  4.13435660E-03  2.12335358E-02  8.25006224E-02  2.38138871E-01
  4.42551547E-01  3.53757422E-01 -4.89867350E-05 -1.19527323E-03 -1.03490714E-02
 -6.48680190E-02 -1.71552477E-01  1.07289568E+00  1.00000000E+00  1.00000000E+00
  3.98072123E-02  2.49002660E-01  8.10479727E-01  1.00000000E+00  1.00000000E+00
  1.00000000E+00  1.00000000E+00  1.00000000E+00  5.34563860E-04  4.13435660E-03
  2.12335358E-02  8.25006224E-02  2.38138871E-01  4.42551547E-01  3.53757422E-01
 -4.89867350E-05 -1.19527323E-03 -1.03490714E-02 -6.48680190E-02 -1.71552477E-01
  1.07289568E+00  1.00000000E+00  1.00000000E+00  3.98072123E-02  2.49002660E-01
  8.10479727E-01  1.00000000E+00  1.00000000E+00  1.00000000E+00  1.00000000E+00
  1.00000000E+00  2.54948632E-02  1.90362766E-01  8.52162022E-01  1.00000000E+00
  1.00000000E+00  1.00000000E+00  1.00000000E+00  1.00000000E+00  5.34563860E-04
  4.13435660E-03  2.12335358E-02  8.25006224E-02  2.38138871E-01  4.42551547E-01
  3.53757422E-01 -4.89867350E-05 -1.19527323E-03 -1.03490714E-02 -6.48680190E-02
 -1.71552477E-01  1.07289568E+00  1.00000000E+00  1.00000000E+00  3.98072123E-02
  2.49002660E-01  8.10479727E-01  1.00000000E+00  1.00000000E+00  1.00000000E+00
  1.00000000E+00  1.00000000E+00  2.54948632E-02  1.90362766E-01  8.52162022E-01
  1.00000000E+00  1.00000000E+00  1.00000000E+00  1.00000000E+00  1.00000000E+00
  2.54948632E-02  1.90362766E-01  8.52162022E-01  1.00000000E+00  1.00000000E+00
  1.00000000E+00  1.00000000E+00  1.00000000E+00  2.54948632E-02  1.90362766E-01
  8.52162022E-01  1.00000000E+00  1.00000000E+00  1.00000000E+00  1.00000000E+00
  1.00000000E+00
Coordinates of each shell                  R   N=         288
  1.02498996E+00  2.54011094E+00  1.04897530E-04  1.02498996E+00  2.54011094E+00
  1.04897530E-04  1.02498996E+00  2.54011094E+00  1.04897530E-04  1.02498996E+00
  2.54011094E+00  1.04897530E-04  1.02498996E+00  2.54011094E+00  1.04897530E-04
  1.02498996E+00  2.54011094E+00  1.04897530E-04  1.02498996E+00  2.54011094E+00
  1.04897530E-04  1.02498996E+00  2.54011094E+00  1.04897530E-04  1.02498996E+00
  2.54011094E+00  1.04897530E-04  1.02498996E+00  2.54011094E+00  1.04897530E-04
  1.86730416E+00  4.62867692E+00  1.01371449E-04  1.86730416E+00  4.62867692E+00
  1.01371449E-04  1.86730416E+00  4.62867692E+00  1.01371449E-04  1.86730416E+00
  4.62867692E+00  1.01371449E-04  1.86730416E+00  4.62867692E+00  1.01371449E-04
  1.86730416E+00  4.62867692E+00  1.01371449E-04 -2.71334896E+00 -3.82723008E-01
  2.50962463E-04 -2.71334896E+00 -3.82723008E-01  2.50962463E-04 -2.71334896E+00
 -3.82723008E-01  2.50962463E-04 -2.71334896E+00 -3.82723008E-01  2.50962463E-04
 -2.71334896E+00 -3.82723008E-01  2.50962463E-04 -2.71334896E+00 -3.82723008E-01
  2.50962463E-04 -2.71334896E+00 -3.82723008E-01  2.50962463E-04 -2.71334896E+00
 -3.82723008E-01  2.50962463E-04 -2.71334896E+00 -3.82723008E-01  2.50962463E-04
 -2.71334896E+00 -3.82723008E-01  2.50962463E-04 -4.94299272E+00 -6.97119526E-01
  3.59753600E-04 -4.94299272E+00 -6.97119526E-01  3.59753600E-04 -4.94299272E+00
 -6.97119526E-01  3.59753600E-04 -4.94299272E+00 -6.97119526E-01  3.59753600E-04
 -4.94299272E+00 -6.97119526E-01  3.59753600E-04 -4.94299272E+00 -6.97119526E-01
  3.59753600E-04  1.68770574E+00 -2.15749452E+00 -2.26694497E-04  1.68770574E+00
 -2.15749452E+00 -2.26694497E-04  1.68770574E+00 -2.15749452E+00 -2.26694497E-04
  1.68770574E+00 -2.15749452E+00 -2.26694497E-04  1.68770574E+00 -2.15749452E+00
 -2.26694497E-04  1.68770574E+00 -2.15749452E+00 -2.26694497E-04  1.68770574E+00
 -2.15749452E+00 -2.26694497E-04  1.68770574E+00 -2.15749452E+00 -2.26694497E-04
  1.68770574E+00 -2.15749452E+00 -2.26694497E-04  1.68770574E+00 -2.15749452E+00
 -2.26694497E-04  2.63365836E+00  3.71423552E-01 -2.04218659E-04  2.63365836E+00
  3.71423552E-01 -2.04218659E-04  2.63365836E+00  3.71423552E-01 -2.04218659E-04
  2.63365836E+00  3.71423552E-01 -2.04218659E-04  2.63365836E+00  3.71423552E-01
 -2.04218659E-04  2.63365836E+00  3.71423552E-01 -2.04218659E-04  2.63365836E+00
  3.71423552E-01 -2.04218659E-04  2.63365836E+00  3.71423552E-01 -2.04218659E-04
  2.63365836E+00  3.71423552E-01 -2.04218659E-04  2.63365836E+00  3.71423552E-01
 -2.04218659E-04 -1.63847026E+00  2.09445196E+00  2.28357987E-04 -1.63847026E+00
  2.09445196E+00  2.28357987E-04 -1.63847026E+00  2.09445196E+00  2.28357987E-04
 -1.63847026E+00  2.09445196E+00  2.28357987E-04 -1.63847026E+00  2.09445196E+00
  2.28357987E-04 -1.63847026E+00  2.09445196E+00  2.28357987E-04 -1.63847026E+00
  2.09445196E+00  2.28357987E-04 -1.63847026E+00  2.09445196E+00  2.28357987E-04
 -1.63847026E+00  2.09445196E+00  2.28357987E-04 -1.63847026E+00  2.09445196E+00
  2.28357987E-04 -2.80861787E+00  3.59359294E+00  3.73451389E-04 -2.80861787E+00
  3.59359294E+00  3.73451389E-04 -2.80861787E+00  3.59359294E+00  3.73451389E-04
 -2.80861787E+00  3.59359294E+00  3.73451389E-04 -2.80861787E+00  3.59359294E+00
  3.73451389E-04 -2.80861787E+00  3.59359294E+00  3.73451389E-04 -9.94988766E-01
 -2.46579084E+00 -7.33293863E-05 -9.94988766E-01 -2.46579084E+00 -7.33293863E-05
 -9.94988766E-01 -2.46579084E+00 -7.33293863E-05 -9.94988766E-01 -2.46579084E+00
 -7.33293863E-05 -9.94988766E-01 -2.46579084E+00 -7.33293863E-05 -9.94988766E-01
 -2.46579084E+00 -7.33293863E-05 -9.94988766E-01 -2.46579084E+00 -7.33293863E-05
 -9.94988766E-01 -2.46579084E+00 -7.33293863E-05 -9.94988766E-01 -2.46579084E+00
 -7.33293863E-05 -9.94988766E-01 -2.46579084E+00 -7.33293863E-05 -1.70513762E+00
 -4.23001672E+00 -1.66952896E-04 -1.70513762E+00 -4.23001672E+00 -1.66952896E-04
 -1.70513762E+00 -4.23001672E+00 -1.66952896E-04 -1.70513762E+00 -4.23001672E+00
 -1.66952896E-04 -1.70513762E+00 -4.23001672E+00 -1.66952896E-04 -1.70513762E+00
 -4.23001672E+00 -1.66952896E-04  4.51680761E+00  6.36911348E-01 -4.09232225E-04
  4.51680761E+00  6.36911348E-01 -4.09232225E-04  4.51680761E+00  6.36911348E-01
 -4.09232225E-04  4.51680761E+00  6.36911348E-01 -4.09232225E-04  4.51680761E+00
  6.36911348E-01 -4.09232225E-04  4.51680761E+00  6.36911348E-01 -4.09232225E-04
  3.07450744E+00 -3.93210477E+00 -5.59888396E-04  3.07450744E+00 -3.93210477E+00
 -5.59888396E-04  3.07450744E+00 -3.93210477E+00 -5.59888396E-04  3.07450744E+00
 -3.93210477E+00 -5.59888396E-04  3.07450744E+00 -3.93210477E+00 -5.59888396E-04
  3.07450744E+00 -3.93210477E+00 -5.59888396E-04
Constraint Structure                       R   N=          36
  1.02498996E+00  2.54011094E+00  1.04897530E-04  1.86730416E+00  4.62867692E+00
  1.01371449E-04 -2.71334896E+00 -3.82723008E-01  2.50962463E-04 -4.94299272E+00
 -6.97119526E-01  3.59753600E-04  1.68770574E+00 -2.15749452E+00 -2.26694497E-04
  2.63365836E+00  3.71423552E-01 -2.04218659E-04 -1.63847026E+00  2.09445196E+00
  2.28357987E-04 -2.80861787E+00  3.59359294E+00  3.73451389E-04 -9.94988766E-01
 -2.46579084E+00 -7.33293863E-05 -1.70513762E+00 -4.23001672E+00 -1.66952896E-04
  4.51680761E+00  6.36911348E-01 -4.09232225E-04  3.07450744E+00 -3.93210477E+00
 -5.59888396E-04
Num ILSW                                   I              100
ILSW                                       I   N=         100
           0           0           0           0           0           0
           0           0           0           0         402          -1
           0           0           0           0           0           0
           0           0           1           0           0           0
           1           0           0           0           0           0
           0           0      100000           0          -1           0
           0           0           0           0           0           0
           0           0           0           1           0           0
           0           0           1           0           0           0
           0           0           4          40           0           0
           0           0           5           0           0           0
           0           0           0           0           0           0
           0           0           0           0           0           0
           0           0           0           0           0           0
           0           0           0           0           0           0
           0           0           0           0           0           0
           0           0           0           0
Num RLSW                                   I               40
RLSW                                       R   N=          40
  8.00000000E-01  7.20000000E-01  1.00000000E+00  8.10000000E-01  2.00000000E-01
  0.00000000E+00  0.00000000E+00  1.00000000E+00  0.00000000E+00  0.00000000E+00
  0.00000000E+00  0.00000000E+00  1.00000000E+00  0.00000000E+00  0.00000000E+00
  0.00000000E+00  0.00000000E+00  1.00000000E+00  0.00000000E+00  0.00000000E+00
  0.00000000E+00  0.00000000E+00  1.00000000E+00  0.00000000E+00  0.00000000E+00
  0.00000000E+00  0.00000000E+00  1.00000000E+00  0.00000000E+00  0.00000000E+00
  0.00000000E+00  0.00000000E+00  1.00000000E+00  0.00000000E+00  0.00000000E+00
  0.00000000E+00  0.00000000E+00  0.00000000E+00  1.00000000E+00  1.00000000E+00
MxBond                                     I                3
NBond                                      I   N=          12
           3           1           3           1           3           3
           3           1           3           1           1           1
IBond                                      I   N=          36
           2           6           7           1           0           0
           4           7           9           3           0           0
           6           9          12           1           5          11
           1           3           8           7           0           0
           3           5          10           9           0           0
           6           0           0           5           0           0
RBond                                      R   N=          36
  1.00000000E+00  1.00000000E+00  1.00000000E+00  1.00000000E+00  0.00000000E+00
  0.00000000E+00  1.00000000E+00  1.00000000E+00  1.00000000E+00  1.00000000E+00
  0.00000000E+00  0.00000000E+00  1.00000000E+00  1.00000000E+00  1.00000000E+00
  1.00000000E+00  1.00000000E+00  1.00000000E+00  1.00000000E+00  1.00000000E+00
  1.00000000E+00  1.00000000E+00  0.00000000E+00  0.00000000E+00  1.00000000E+00
  1.00000000E+00  1.00000000E+00  1.00000000E+00  0.00000000E+00  0.00000000E+00
  1.00000000E+00  0.00000000E+00  0.00000000E+00  1.00000000E+00  0.00000000E+00
  0.00000000E+00
Virial Ratio                               R      2.007067585500015E+00
SCF Energy                                 R     -2.427699238896468E+02
Total Energy                               R     -2.427699238896468E+02
RMS Force                                  R      5.200303536002273E-05
RMS Density                                R      8.020655955829433E-09
External E-field                           R   N=          35
  0.00000000E+00  0.00000000E+00  0.00000000E+00  0.00000000E+00  0.00000000E+00
  0.00000000E+00  0.00000000E+00  0.00000000E+00  0.00000000E+00  0.00000000E+00
  0.00000000E+00  0.00000000E+00  0.00000000E+00  0.00000000E+00  0.00000000E+00
  0.00000000E+00  0.00000000E+00  0.00000000E+00  0.00000000E+00  0.00000000E+00
  0.00000000E+00  0.00000000E+00  0.00000000E+00  0.00000000E+00  0.00000000E+00
  0.00000000E+00  0.00000000E+00  0.00000000E+00  0.00000000E+00  0.00000000E+00
  0.00000000E+00  0.00000000E+00  0.00000000E+00  0.00000000E+00  0.00000000E+00
IOpCl                                      I                0
IROHF                                      I                0
Alpha Orbital Energies                     R   N=         264
 -1.43032802E+01 -1.43032616E+01 -1.43032477E+01 -6.74542922E+00 -6.74542155E+00
 -6.74540048E+00 -8.98163017E-01 -8.44113482E-01 -8.44050856E-01 -5.60484033E-01
 -5.33838473E-01 -5.33749299E-01 -4.43470795E-01 -4.43413527E-01 -4.43102058E-01
 -3.95015544E-01 -3.73508309E-01 -3.29666724E-01 -3.29627240E-01 -2.88261635E-01
 -2.88203397E-01  6.74626071E-03  6.75645080E-03  4.32711546E-02  5.67607105E-02
  5.67846624E-02  8.07923813E-02  9.79741999E-02  1.18353954E-01  1.18403795E-01
  1.39886686E-01  1.77677199E-01  1.80772122E-01  1.80801478E-01  2.02973606E-01
  2.02990766E-01  2.17908273E-01  2.19501753E-01  2.19546801E-01  2.78096946E-01
  2.90113862E-01  2.90162801E-01  3.24474134E-01  3.30308156E-01  3.30330350E-01
  3.82440358E-01  4.17690172E-01  4.17772101E-01  4.30744503E-01  4.56798349E-01
  4.56813010E-01  4.80327352E-01  4.89257367E-01  5.15028380E-01  5.15048592E-01
  5.30829096E-01  5.30861140E-01  5.67536138E-01  5.67651975E-01  5.68634346E-01
  5.90776360E-01  6.08293686E-01  6.34698136E-01  6.43053952E-01  6.43093246E-01
  6.65924357E-01  6.65959909E-01  7.06194585E-01  7.06213064E-01  7.48715895E-01
  7.80544034E-01  7.80708180E-01  8.14006708E-01  8.68867251E-01  8.69035133E-01
  8.93139588E-01  8.93909771E-01  8.97920529E-01  8.97986617E-01  9.14577062E-01
  9.14683277E-01  9.83036627E-01  1.08382608E+00  1.11046195E+00  1.11065784E+00
  1.11907144E+00  1.13852097E+00  1.13858708E+00  1.19896017E+00  1.19945394E+00
  1.25933480E+00  1.25961949E+00  1.26962750E+00  1.31732410E+00  1.34082880E+00
  1.34094290E+00  1.34649783E+00  1.35176304E+00  1.35183681E+00  1.37506786E+00
  1.37509442E+00  1.38701814E+00  1.39299716E+00  1.43942054E+00  1.43943060E+00
  1.44263655E+00  1.45093625E+00  1.45099706E+00  1.50316231E+00  1.53704041E+00
  1.59656770E+00  1.59673811E+00  1.62112142E+00  1.62697996E+00  1.62725933E+00
  1.74463325E+00  1.79200693E+00  1.79223974E+00  1.86629947E+00  1.86633313E+00
  1.86680771E+00  1.89077722E+00  1.89078641E+00  1.93948733E+00  1.93953037E+00
  1.99450243E+00  2.00412234E+00  2.00416219E+00  2.01321305E+00  2.07046237E+00
  2.09695125E+00  2.09711334E+00  2.12231969E+00  2.12242236E+00  2.12631826E+00
  2.17320780E+00  2.21362194E+00  2.22108948E+00  2.22140679E+00  2.27381299E+00
  2.27386839E+00  2.27739249E+00  2.27821977E+00  2.28538449E+00  2.28567633E+00
  2.41544630E+00  2.49149462E+00  2.49169658E+00  2.50538247E+00  2.56799148E+00
  2.56823283E+00  2.57374190E+00  2.62807207E+00  2.62831186E+00  2.78629637E+00
  2.78647734E+00  2.81241372E+00  2.88919186E+00  2.88973735E+00  3.16228896E+00
  3.18401558E+00  3.18424225E+00  3.20949271E+00  3.21032119E+00  3.21048822E+00
  3.36243739E+00  3.36256344E+00  3.40942755E+00  3.43213024E+00  3.43237636E+00
  3.43625212E+00  3.43637857E+00  3.44381898E+00  3.51435424E+00  3.51455327E+00
  3.54602186E+00  3.54820671E+00  3.65836255E+00  3.65858729E+00  3.66910147E+00
  3.69850284E+00  3.73877666E+00  3.73883202E+00  3.75545085E+00  3.75559397E+00
  3.81293428E+00  3.82239174E+00  3.91132694E+00  3.91181336E+00  3.91193849E+00
  3.91438308E+00  3.91444692E+00  4.00899566E+00  4.00944577E+00  4.01897837E+00
  4.01906482E+00  4.06026417E+00  4.07796622E+00  4.09670252E+00  4.09675529E+00
  4.21521694E+00  4.27902113E+00  4.28867444E+00  4.28872260E+00  4.29512881E+00
  4.37088977E+00  4.37094314E+00  4.37310866E+00  4.42140523E+00  4.42144673E+00
  4.46899933E+00  4.46912057E+00  4.50827616E+00  4.56968781E+00  4.56987284E+00
  4.57264348E+00  4.63495268E+00  4.63539115E+00  4.70612096E+00  4.70641377E+00
  4.71509752E+00  4.80932123E+00  4.84314982E+00  4.86578194E+00  4.88742687E+00
  4.88754520E+00  4.93820433E+00  4.93844942E+00  4.93857362E+00  5.01245203E+00
  5.01251821E+00  5.01878006E+00  5.01922786E+00  5.01928961E+00  5.05182821E+00
  5.05227076E+00  5.12983181E+00  5.23447932E+00  5.23466555E+00  5.36195896E+00
  5.41068695E+00  5.45402499E+00  5.45410642E+00  5.55254436E+00  5.55261602E+00
  5.63141714E+00  5.63168307E+00  5.65076741E+00  5.73765213E+00  5.83985729E+00
  6.03123125E+00  6.03166752E+00  6.15985384E+00  6.16026151E+00  6.27378819E+00
  6.37101894E+00  6.37120769E+00  6.43858125E+00  9.01088119E+00  1.00936349E+01
  1.00943041E+01  1.23523056E+01  1.23525198E+01  1.24805027E+01
Alpha MO coefficients                      R   N=       69696
 -6.46547836E-05 -3.59364433E-06  7.56602071E-04 -1.02350735E-03  1.31653501E-04
 -2.11607312E-04 -3.07972324E-08  1.75945217E-03 -2.79488051E-03 -3.08280470E-07
  2.70302717E-04  2.47281771E-04 -3.38030444E-09  1.40251312E-04  1.01533534E-08
  1.76252943E-08 -9.40392696E-05 -1.66781497E-04  5.78415925E-04  1.49678077E-07
  4.08501298E-08 -9.66598856E-04 -1.59721850E-04  3.89089428E-09 -7.79880116E-05
 -5.94082401E-05 -1.52318739E-07 -1.32126447E-07  1.33759030E-03  7.20572402E-05
  2.91209129E-04  1.20878958E-03 -7.95104783E-05 -1.97692474E-05 -2.15752422E-04
 -1.13512620E-09 -9.95903599E-05 -3.29385031E-04  1.71513821E-08  1.17173520E-04