 Generated by Multiwfn
GAUSSIAN             95 MOL ORBITALS    432 PRIMITIVES       24 NUCLEI
  B    1    (CENTRE  1)   4.73692523  2.77574759  0.00205302  CHARGE =  5.0
  H    2    (CENTRE  2)   4.76909309  5.02437147  0.00275055  CHARGE =  1.0
  B    3    (CENTRE  3)  -0.00017045  2.76581069 -0.00328147  CHARGE =  5.0
  H    4    (CENTRE  4)   0.00017174  5.01255208 -0.00456310  CHARGE =  1.0
  B    5    (CENTRE  5)  -4.73742408  2.77561251 -0.00105751  CHARGE =  5.0
  H    6    (CENTRE  6)  -4.76975089  5.02423938 -0.00131183  CHARGE =  1.0
  B    7    (CENTRE  7)  -7.12388194 -1.32803223  0.00432364  CHARGE =  5.0
  H    8    (CENTRE  8)  -9.07901919 -2.44583268  0.00829516  CHARGE =  1.0
  B    9    (CENTRE  9)  -2.37600494 -1.33904556 -0.00257796  CHARGE =  5.0
  B   10    (CENTRE 10)   2.37634615 -1.33929281 -0.00086068  CHARGE =  5.0
  B   11    (CENTRE 11)   7.12407178 -1.32759230  0.00123104  CHARGE =  5.0
  H   12    (CENTRE 12)   9.07926691 -2.44532992  0.00085166  CHARGE =  1.0
  N   13    (CENTRE 13)   7.03768996  1.37426247  0.00319931  CHARGE =  7.0
  H   14    (CENTRE 14)   8.67713875  2.33800417  0.00577863  CHARGE =  1.0
  N   15    (CENTRE 15)   2.36729283  1.41766773 -0.00071692  CHARGE =  7.0
  N   16    (CENTRE 16)  -2.36755582  1.41791679 -0.00418918  CHARGE =  7.0
  N   17    (CENTRE 17)  -7.03798024  1.37395005  0.00234250  CHARGE =  7.0
  H   18    (CENTRE 18)  -8.67753294  2.33750766  0.00552558  CHARGE =  1.0
  N   19    (CENTRE 19)  -4.76863245 -2.62852243  0.00095354  CHARGE =  7.0
  H   20    (CENTRE 20)  -4.79875115 -4.53113613  0.00249234  CHARGE =  1.0
  N   21    (CENTRE 21)   0.00026896 -2.63530872 -0.00428104  CHARGE =  7.0
  H   22    (CENTRE 22)   0.00054430 -4.53980871 -0.00141083  CHARGE =  1.0
  N   23    (CENTRE 23)   4.76889167 -2.62847452  0.00012580  CHARGE =  7.0
  H   24    (CENTRE 24)   4.79970626 -4.53104631  0.00040370  CHARGE =  1.0
CENTRE ASSIGNMENTS    1  1  1  1  1  1  1  1  1  1  1  1  1  1  1  1  1  1  1  1
CENTRE ASSIGNMENTS    1  1  1  1  1  1  1  1  2  2  2  2  3  3  3  3  3  3  3  3
CENTRE ASSIGNMENTS    3  3  3  3  3  3  3  3  3  3  3  3  3  3  3  3  3  3  3  3
CENTRE ASSIGNMENTS    4  4  4  4  5  5  5  5  5  5  5  5  5  5  5  5  5  5  5  5
CENTRE ASSIGNMENTS    5  5  5  5  5  5  5  5  5  5  5  5  6  6  6  6  7  7  7  7
CENTRE ASSIGNMENTS    7  7  7  7  7  7  7  7  7  7  7  7  7  7  7  7  7  7  7  7
CENTRE ASSIGNMENTS    7  7  7  7  8  8  8  8  9  9  9  9  9  9  9  9  9  9  9  9
CENTRE ASSIGNMENTS    9  9  9  9  9  9  9  9  9  9  9  9  9  9  9  9 10 10 10 10
CENTRE ASSIGNMENTS   10 10 10 10 10 10 10 10 10 10 10 10 10 10 10 10 10 10 10 10
CENTRE ASSIGNMENTS   10 10 10 10 11 11 11 11 11 11 11 11 11 11 11 11 11 11 11 11
CENTRE ASSIGNMENTS   11 11 11 11 11 11 11 11 11 11 11 11 12 12 12 12 13 13 13 13
CENTRE ASSIGNMENTS   13 13 13 13 13 13 13 13 13 13 13 13 13 13 13 13 13 13 13 13
CENTRE ASSIGNMENTS   13 13 13 13 14 14 14 14 15 15 15 15 15 15 15 15 15 15 15 15
CENTRE ASSIGNMENTS   15 15 15 15 15 15 15 15 15 15 15 15 15 15 15 15 16 16 16 16
CENTRE ASSIGNMENTS   16 16 16 16 16 16 16 16 16 16 16 16 16 16 16 16 16 16 16 16
CENTRE ASSIGNMENTS   16 16 16 16 17 17 17 17 17 17 17 17 17 17 17 17 17 17 17 17
CENTRE ASSIGNMENTS   17 17 17 17 17 17 17 17 17 17 17 17 18 18 18 18 19 19 19 19
CENTRE ASSIGNMENTS   19 19 19 19 19 19 19 19 19 19 19 19 19 19 19 19 19 19 19 19
CENTRE ASSIGNMENTS   19 19 19 19 20 20 20 20 21 21 21 21 21 21 21 21 21 21 21 21
CENTRE ASSIGNMENTS   21 21 21 21 21 21 21 21 21 21 21 21 21 21 21 21 22 22 22 22
CENTRE ASSIGNMENTS   23 23 23 23 23 23 23 23 23 23 23 23 23 23 23 23 23 23 23 23
CENTRE ASSIGNMENTS   23 23 23 23 23 23 23 23 24 24 24 24
TYPE ASSIGNMENTS      1  1  1  1  1  1  1  1  1  2  2  2  3  3  3  4  4  4  1  2
TYPE ASSIGNMENTS      3  4  5  6  7  8  9 10  1  1  1  1  1  1  1  1  1  1  1  1
TYPE ASSIGNMENTS      1  2  2  2  3  3  3  4  4  4  1  2  3  4  5  6  7  8  9 10
TYPE ASSIGNMENTS      1  1  1  1  1  1  1  1  1  1  1  1  1  2  2  2  3  3  3  4
TYPE ASSIGNMENTS      4  4  1  2  3  4  5  6  7  8  9 10  1  1  1  1  1  1  1  1
TYPE ASSIGNMENTS      1  1  1  1  1  2  2  2  3  3  3  4  4  4  1  2  3  4  5  6
TYPE ASSIGNMENTS      7  8  9 10  1  1  1  1  1  1  1  1  1  1  1  1  1  2  2  2
TYPE ASSIGNMENTS      3  3  3  4  4  4  1  2  3  4  5  6  7  8  9 10  1  1  1  1
TYPE ASSIGNMENTS      1  1  1  1  1  2  2  2  3  3  3  4  4  4  1  2  3  4  5  6
TYPE ASSIGNMENTS      7  8  9 10  1  1  1  1  1  1  1  1  1  2  2  2  3  3  3  4
TYPE ASSIGNMENTS      4  4  1  2  3  4  5  6  7  8  9 10  1  1  1  1  1  1  1  1
TYPE ASSIGNMENTS      1  1  1  1  1  2  2  2  3  3  3  4  4  4  1  2  3  4  5  6
TYPE ASSIGNMENTS      7  8  9 10  1  1  1  1  1  1  1  1  1  1  1  1  1  2  2  2
TYPE ASSIGNMENTS      3  3  3  4  4  4  1  2  3  4  5  6  7  8  9 10  1  1  1  1
TYPE ASSIGNMENTS      1  1  1  1  1  2  2  2  3  3  3  4  4  4  1  2  3  4  5  6
TYPE ASSIGNMENTS      7  8  9 10  1  1  1  1  1  1  1  1  1  2  2  2  3  3  3  4
TYPE ASSIGNMENTS      4  4  1  2  3  4  5  6  7  8  9 10  1  1  1  1  1  1  1  1
TYPE ASSIGNMENTS      1  1  1  1  1  2  2  2  3  3  3  4  4  4  1  2  3  4  5  6
TYPE ASSIGNMENTS      7  8  9 10  1  1  1  1  1  1  1  1  1  1  1  1  1  2  2  2
TYPE ASSIGNMENTS      3  3  3  4  4  4  1  2  3  4  5  6  7  8  9 10  1  1  1  1
TYPE ASSIGNMENTS      1  1  1  1  1  1  1  1  1  2  2  2  3  3  3  4  4  4  1  2
TYPE ASSIGNMENTS      3  4  5  6  7  8  9 10  1  1  1  1
EXPONENTS  0.2068882D+04 0.3106496D+03 0.7068303D+02 0.1986108D+02 0.6299305D+01
EXPONENTS  0.2127027D+01 0.4727971D+01 0.1190338D+01 0.3594117D+00 0.4727971D+01
EXPONENTS  0.1190338D+01 0.3594117D+00 0.4727971D+01 0.1190338D+01 0.3594117D+00
EXPONENTS  0.4727971D+01 0.1190338D+01 0.3594117D+00 0.1267512D+00 0.1267512D+00
EXPONENTS  0.1267512D+00 0.1267512D+00 0.6000000D+00 0.6000000D+00 0.6000000D+00
EXPONENTS  0.6000000D+00 0.6000000D+00 0.6000000D+00 0.1873114D+02 0.2825394D+01
EXPONENTS  0.6401217D+00 0.1612778D+00 0.2068882D+04 0.3106496D+03 0.7068303D+02
EXPONENTS  0.1986108D+02 0.6299305D+01 0.2127027D+01 0.4727971D+01 0.1190338D+01
EXPONENTS  0.3594117D+00 0.4727971D+01 0.1190338D+01 0.3594117D+00 0.4727971D+01
EXPONENTS  0.1190338D+01 0.3594117D+00 0.4727971D+01 0.1190338D+01 0.3594117D+00
EXPONENTS  0.1267512D+00 0.1267512D+00 0.1267512D+00 0.1267512D+00 0.6000000D+00
EXPONENTS  0.6000000D+00 0.6000000D+00 0.6000000D+00 0.6000000D+00 0.6000000D+00
EXPONENTS  0.1873114D+02 0.2825394D+01 0.6401217D+00 0.1612778D+00 0.2068882D+04
EXPONENTS  0.3106496D+03 0.7068303D+02 0.1986108D+02 0.6299305D+01 0.2127027D+01
EXPONENTS  0.4727971D+01 0.1190338D+01 0.3594117D+00 0.4727971D+01 0.1190338D+01
EXPONENTS  0.3594117D+00 0.4727971D+01 0.1190338D+01 0.3594117D+00 0.4727971D+01
EXPONENTS  0.1190338D+01 0.3594117D+00 0.1267512D+00 0.1267512D+00 0.1267512D+00
EXPONENTS  0.1267512D+00 0.6000000D+00 0.6000000D+00 0.6000000D+00 0.6000000D+00
EXPONENTS  0.6000000D+00 0.6000000D+00 0.1873114D+02 0.2825394D+01 0.6401217D+00
EXPONENTS  0.1612778D+00 0.2068882D+04 0.3106496D+03 0.7068303D+02 0.1986108D+02
EXPONENTS  0.6299305D+01 0.2127027D+01 0.4727971D+01 0.1190338D+01 0.3594117D+00
EXPONENTS  0.4727971D+01 0.1190338D+01 0.3594117D+00 0.4727971D+01 0.1190338D+01
EXPONENTS  0.3594117D+00 0.4727971D+01 0.1190338D+01 0.3594117D+00 0.1267512D+00
EXPONENTS  0.1267512D+00 0.1267512D+00 0.1267512D+00 0.6000000D+00 0.6000000D+00
EXPONENTS  0.6000000D+00 0.6000000D+00 0.6000000D+00 0.6000000D+00 0.1873114D+02
EXPONENTS  0.2825394D+01 0.6401217D+00 0.1612778D+00 0.2068882D+04 0.3106496D+03
EXPONENTS  0.7068303D+02 0.1986108D+02 0.6299305D+01 0.2127027D+01 0.4727971D+01
EXPONENTS  0.1190338D+01 0.3594117D+00 0.4727971D+01 0.1190338D+01 0.3594117D+00
EXPONENTS  0.4727971D+01 0.1190338D+01 0.3594117D+00 0.4727971D+01 0.1190338D+01
EXPONENTS  0.3594117D+00 0.1267512D+00 0.1267512D+00 0.1267512D+00 0.1267512D+00
EXPONENTS  0.6000000D+00 0.6000000D+00 0.6000000D+00 0.6000000D+00 0.6000000D+00
EXPONENTS  0.6000000D+00 0.2068882D+04 0.3106496D+03 0.7068303D+02 0.1986108D+02
EXPONENTS  0.6299305D+01 0.2127027D+01 0.4727971D+01 0.1190338D+01 0.3594117D+00
EXPONENTS  0.4727971D+01 0.1190338D+01 0.3594117D+00 0.4727971D+01 0.1190338D+01
EXPONENTS  0.3594117D+00 0.4727971D+01 0.1190338D+01 0.3594117D+00 0.1267512D+00
EXPONENTS  0.1267512D+00 0.1267512D+00 0.1267512D+00 0.6000000D+00 0.6000000D+00
EXPONENTS  0.6000000D+00 0.6000000D+00 0.6000000D+00 0.6000000D+00 0.2068882D+04
EXPONENTS  0.3106496D+03 0.7068303D+02 0.1986108D+02 0.6299305D+01 0.2127027D+01
EXPONENTS  0.4727971D+01 0.1190338D+01 0.3594117D+00 0.4727971D+01 0.1190338D+01
EXPONENTS  0.3594117D+00 0.4727971D+01 0.1190338D+01 0.3594117D+00 0.4727971D+01
EXPONENTS  0.1190338D+01 0.3594117D+00 0.1267512D+00 0.1267512D+00 0.1267512D+00
EXPONENTS  0.1267512D+00 0.6000000D+00 0.6000000D+00 0.6000000D+00 0.6000000D+00
EXPONENTS  0.6000000D+00 0.6000000D+00 0.1873114D+02 0.2825394D+01 0.6401217D+00
EXPONENTS  0.1612778D+00 0.4173511D+04 0.6274579D+03 0.1429021D+03 0.4023433D+02
EXPONENTS  0.1282021D+02 0.4390437D+01 0.1162636D+02 0.2716280D+01 0.7722184D+00
EXPONENTS  0.1162636D+02 0.2716280D+01 0.7722184D+00 0.1162636D+02 0.2716280D+01
EXPONENTS  0.7722184D+00 0.1162636D+02 0.2716280D+01 0.7722184D+00 0.2120315D+00
EXPONENTS  0.2120315D+00 0.2120315D+00 0.2120315D+00 0.8000000D+00 0.8000000D+00
EXPONENTS  0.8000000D+00 0.8000000D+00 0.8000000D+00 0.8000000D+00 0.1873114D+02
EXPONENTS  0.2825394D+01 0.6401217D+00 0.1612778D+00 0.4173511D+04 0.6274579D+03
EXPONENTS  0.1429021D+03 0.4023433D+02 0.1282021D+02 0.4390437D+01 0.1162636D+02
EXPONENTS  0.2716280D+01 0.7722184D+00 0.1162636D+02 0.2716280D+01 0.7722184D+00
EXPONENTS  0.1162636D+02 0.2716280D+01 0.7722184D+00 0.1162636D+02 0.2716280D+01
EXPONENTS  0.7722184D+00 0.2120315D+00 0.2120315D+00 0.2120315D+00 0.2120315D+00
EXPONENTS  0.8000000D+00 0.8000000D+00 0.8000000D+00 0.8000000D+00 0.8000000D+00
EXPONENTS  0.8000000D+00 0.4173511D+04 0.6274579D+03 0.1429021D+03 0.4023433D+02
EXPONENTS  0.1282021D+02 0.4390437D+01 0.1162636D+02 0.2716280D+01 0.7722184D+00
EXPONENTS  0.1162636D+02 0.2716280D+01 0.7722184D+00 0.1162636D+02 0.2716280D+01
EXPONENTS  0.7722184D+00 0.1162636D+02 0.2716280D+01 0.7722184D+00 0.2120315D+00
EXPONENTS  0.2120315D+00 0.2120315D+00 0.2120315D+00 0.8000000D+00 0.8000000D+00
EXPONENTS  0.8000000D+00 0.8000000D+00 0.8000000D+00 0.8000000D+00 0.4173511D+04
EXPONENTS  0.6274579D+03 0.1429021D+03 0.4023433D+02 0.1282021D+02 0.4390437D+01
EXPONENTS  0.1162636D+02 0.2716280D+01 0.7722184D+00 0.1162636D+02 0.2716280D+01
EXPONENTS  0.7722184D+00 0.1162636D+02 0.2716280D+01 0.7722184D+00 0.1162636D+02
EXPONENTS  0.2716280D+01 0.7722184D+00 0.2120315D+00 0.2120315D+00 0.2120315D+00
EXPONENTS  0.2120315D+00 0.8000000D+00 0.8000000D+00 0.8000000D+00 0.8000000D+00
EXPONENTS  0.8000000D+00 0.8000000D+00 0.1873114D+02 0.2825394D+01 0.6401217D+00
EXPONENTS  0.1612778D+00 0.4173511D+04 0.6274579D+03 0.1429021D+03 0.4023433D+02
EXPONENTS  0.1282021D+02 0.4390437D+01 0.1162636D+02 0.2716280D+01 0.7722184D+00
EXPONENTS  0.1162636D+02 0.2716280D+01 0.7722184D+00 0.1162636D+02 0.2716280D+01
EXPONENTS  0.7722184D+00 0.1162636D+02 0.2716280D+01 0.7722184D+00 0.2120315D+00
EXPONENTS  0.2120315D+00 0.2120315D+00 0.2120315D+00 0.8000000D+00 0.8000000D+00
EXPONENTS  0.8000000D+00 0.8000000D+00 0.8000000D+00 0.8000000D+00 0.1873114D+02
EXPONENTS  0.2825394D+01 0.6401217D+00 0.1612778D+00 0.4173511D+04 0.6274579D+03
EXPONENTS  0.1429021D+03 0.4023433D+02 0.1282021D+02 0.4390437D+01 0.1162636D+02
EXPONENTS  0.2716280D+01 0.7722184D+00 0.1162636D+02 0.2716280D+01 0.7722184D+00
EXPONENTS  0.1162636D+02 0.2716280D+01 0.7722184D+00 0.1162636D+02 0.2716280D+01
EXPONENTS  0.7722184D+00 0.2120315D+00 0.2120315D+00 0.2120315D+00 0.2120315D+00
EXPONENTS  0.8000000D+00 0.8000000D+00 0.8000000D+00 0.8000000D+00 0.8000000D+00
EXPONENTS  0.8000000D+00 0.1873114D+02 0.2825394D+01 0.6401217D+00 0.1612778D+00
EXPONENTS  0.4173511D+04 0.6274579D+03 0.1429021D+03 0.4023433D+02 0.1282021D+02
EXPONENTS  0.4390437D+01 0.1162636D+02 0.2716280D+01 0.7722184D+00 0.1162636D+02
EXPONENTS  0.2716280D+01 0.7722184D+00 0.1162636D+02 0.2716280D+01 0.7722184D+00
EXPONENTS  0.1162636D+02 0.2716280D+01 0.7722184D+00 0.2120315D+00 0.2120315D+00
EXPONENTS  0.2120315D+00 0.2120315D+00 0.8000000D+00 0.8000000D+00 0.8000000D+00
EXPONENTS  0.8000000D+00 0.8000000D+00 0.8000000D+00 0.1873114D+02 0.2825394D+01
EXPONENTS  0.6401217D+00 0.1612778D+00
MO    1     MO 0.0        OCC NO =    1.0000000  ORB. ENERGY =  -14.166550
 -0.52794751D-06 -0.97247056D-06 -0.15635328D-05 -0.20177841D-05 -0.17126669D-05
 -0.59029026D-06  0.16108190D-05  0.57425846D-06 -0.20226425D-05  0.51098977D-05
  0.37606782D-05  0.20327780D-05  0.13748419D-05  0.10118281D-05  0.54692842D-06
  0.22422154D-07  0.16501800D-07  0.89197993D-08 -0.21943048D-05  0.37193718D-06
  0.14318009D-05 -0.14173973D-08 -0.35939210D-05 -0.10450254D-05 -0.63253528D-06
 -0.70991976D-06 -0.16841116D-07 -0.44574061D-08  0.15997615D-06  0.27134983D-06
  0.30892219D-06 -0.11768404D-05 -0.16965353D-06 -0.31249900D-06 -0.50243416D-06
 -0.64840575D-06 -0.55035774D-06 -0.18968709D-06  0.10965770D-05  0.39093072D-06
 -0.13769289D-05  0.38358839D-05  0.28230556D-05  0.15259602D-05 -0.22651476D-05
 -0.16670571D-05 -0.90110261D-06 -0.44371208D-08 -0.32655416D-08 -0.17651393D-08
 -0.10293758D-04 -0.10285113D-05  0.32679894D-05  0.11808906D-07  0.52867205D-05
  0.76351035D-06 -0.15758500D-05  0.52643724D-05  0.10122984D-07 -0.23011447D-07
  0.10191269D-06  0.17286322D-06  0.19679866D-06  0.16888640D-06  0.13643887D-05
  0.25131813D-05  0.40406791D-05  0.52146126D-05  0.44260904D-05  0.15255027D-05
 -0.66897687D-05 -0.23849088D-05  0.84000813D-05 -0.14985927D-05 -0.11029036D-05
 -0.59615796D-06 -0.23992689D-04 -0.17657649D-04 -0.95445765D-05  0.11008946D-07
  0.81021396D-08  0.43794896D-08  0.21573824D-04 -0.24090964D-05 -0.20368180D-04
  0.69789381D-08  0.22605528D-05  0.39510392D-05  0.19628091D-05  0.60786584D-06
  0.18011694D-08  0.55254736D-08  0.31628740D-06  0.53648329D-06  0.61076726D-06
  0.14569943D-04  0.23114112D-05  0.42575810D-05  0.68453153D-05  0.88340765D-05
  0.74982407D-05  0.25843544D-05 -0.47075055D-04 -0.16782301D-04  0.59110308D-04
  0.28786865D-03  0.21185970D-03  0.11451757D-03 -0.13451954D-03 -0.99000948D-04
 -0.53513472D-04 -0.43761885D-06 -0.32206979D-06 -0.17408997D-06 -0.76283356D-04
 -0.22997929D-04  0.18610937D-04  0.42455784D-07  0.15308638D-03  0.43492116D-04
 -0.39384706D-04 -0.21228158D-03 -0.54678238D-06  0.28097392D-06  0.29109028D-05
  0.49374420D-05  0.56211032D-05  0.85222407D-05  0.29448728D-05  0.54244068D-05
  0.87213314D-05  0.11255129D-04  0.95531965D-05  0.32926185D-05 -0.47418148D-04
 -0.16904614D-04  0.59541116D-04 -0.25724685D-03 -0.18932329D-03 -0.10233585D-03
 -0.14254889D-03 -0.10491023D-03 -0.56707643D-04  0.36479397D-06  0.26847362D-06
  0.14511937D-06 -0.69611118D-04  0.58812902D-04  0.15952793D-04 -0.58531210D-07
  0.16902951D-03  0.56246268D-04 -0.34474701D-04  0.18459337D-03 -0.56888441D-06
 -0.31344397D-06  0.87402250D-06  0.16099349D-05  0.25884445D-05  0.33404622D-05
  0.28353376D-05  0.97723155D-06 -0.21671906D-05 -0.77260548D-06  0.27212567D-05
 -0.19014895D-05 -0.13994194D-05 -0.75643510D-06  0.25405158D-05  0.18697170D-05
  0.10106474D-05 -0.28034852D-07 -0.20632518D-07 -0.11152597D-07 -0.78138099D-05
  0.26353186D-05  0.65232838D-05  0.21812667D-07  0.84568474D-05  0.57937639D-05
  0.34009605D-06  0.32389971D-05  0.33761178D-07  0.23064551D-07  0.81760058D-09
  0.15060067D-08  0.24213493D-08  0.31248210D-08  0.26523044D-08  0.91414705D-09
 -0.28612359D-06 -0.10200333D-06  0.35927422D-06 -0.85476415D-06 -0.62907188D-06
 -0.34003533D-06 -0.18479852D-06 -0.13600425D-06 -0.73515047D-07  0.62707414D-08
  0.46150123D-08  0.24945754D-08 -0.24135977D-06 -0.66595885D-07  0.36402839D-06
 -0.55140100D-09  0.54791308D-06 -0.20008803D-06 -0.45044021D-06  0.62973587D-06
 -0.37919199D-08 -0.69620588D-08  0.13261686D-07  0.22494330D-07  0.25609000D-07
  0.32077574D-06 -0.20104750D-05 -0.37024577D-05 -0.59821630D-05 -0.78293654D-05
 -0.67065531D-05 -0.23071320D-05 -0.89640221D-07 -0.44313719D-07  0.11689675D-06
 -0.17733478D-05 -0.13805796D-05 -0.65554803D-06 -0.15225876D-06 -0.11853588D-06
 -0.56285027D-07 -0.51852826D-08 -0.40368253D-08 -0.19168274D-08  0.41729228D-06
  0.28821290D-06  0.69182702D-06  0.25889461D-08  0.59681753D-06  0.36708328D-06
  0.57356296D-06 -0.16720098D-05 -0.11067044D-08 -0.90776288D-09 -0.10244682D-06
 -0.17376920D-06 -0.19783009D-06 -0.44829089D-06  0.19057175D-05  0.35095379D-05
  0.56704572D-05  0.74214094D-05  0.63571023D-05  0.21869168D-05 -0.40003170D-05
 -0.19775601D-05  0.52166767D-05 -0.71846972D-05 -0.55934015D-05 -0.26559449D-05
 -0.74439260D-05 -0.57952153D-05 -0.27517732D-05  0.28318342D-07  0.22046281D-07
  0.10468354D-07 -0.68360661D-05  0.60641241D-05  0.93552418D-05 -0.17328187D-07
  0.48715607D-05 -0.87512101D-06  0.78479874D-05  0.38614441D-05  0.54118876D-08
  0.17465878D-07 -0.10723155D-04 -0.19747586D-04 -0.31906719D-04 -0.41759036D-04
 -0.35770357D-04 -0.12305417D-04 -0.32212777D-04 -0.15924413D-04  0.42007582D-04
 -0.21192149D-04 -0.16498427D-04 -0.78340366D-05 -0.19252641D-04 -0.14988488D-04
 -0.71170644D-05  0.34894294D-07  0.27165765D-07  0.12899266D-07 -0.36940551D-04
  0.13677265D-04  0.20094896D-04 -0.37307361D-07 -0.12695259D-04 -0.36186921D-04
  0.39928920D-04 -0.30809817D-04  0.15525604D-06  0.13201792D-06 -0.12828750D-03
 -0.23625215D-03 -0.38171911D-03 -0.49958825D-03 -0.42794211D-03 -0.14721704D-03
 -0.30676892D-04 -0.15165147D-04  0.40004687D-04  0.16396828D-04  0.12765192D-04
  0.60613647D-05 -0.82763134D-05 -0.64432421D-05 -0.30594793D-05 -0.21848563D-07
 -0.17009455D-07 -0.80766910D-08 -0.38182986D-04 -0.26624855D-04  0.17893840D-04
  0.26310377D-07 -0.14097763D-04 -0.36188406D-04  0.38825115D-04  0.39150995D-04
  0.14726428D-06  0.42949867D-07  0.10357984D-06  0.17569101D-06  0.20001801D-06
 -0.14752211D-04  0.67394237D+00  0.12411212D+01  0.20053137D+01  0.26245245D+01
  0.22481405D+01  0.77338637D+00 -0.17971375D-01 -0.88841642D-02  0.23435856D-01
  0.23903598D-04  0.18609333D-04  0.88363694D-05 -0.10621462D-02 -0.82689779D-03
 -0.39264032D-03  0.13337690D-05  0.10383604D-05  0.49305027D-06  0.10280220D-02
  0.96059879D-05  0.43876412D-04 -0.85033790D-07 -0.96882055D-02 -0.94596953D-02
 -0.94559063D-02  0.11610454D-04  0.68610962D-06 -0.12270109D-06  0.58489581D-04
  0.99209401D-04  0.11294640D-03 -0.61415296D-04 -0.19709939D-02 -0.36297499D-02
 -0.58646870D-02 -0.76756146D-02 -0.65748518D-02 -0.22618252D-02  0.19044623D-04
  0.94147255D-05 -0.24835443D-04 -0.23575743D-04 -0.18354093D-04 -0.87151724D-05
 -0.28521001D-05 -0.22204055D-05 -0.10543271D-05 -0.66480084D-08 -0.51755807D-08
 -0.24575488D-08 -0.54318086D-04  0.26812502D-04 -0.10609397D-04 -0.24256697D-07
 -0.87317930D-05  0.26147514D-04  0.71267230D-04  0.13163005D-04  0.16484050D-06
  0.50367091D-07  0.29261683D-05  0.49633354D-05  0.56505819D-05  0.52292424D-05
  0.33937856D-02  0.62499397D-02  0.10098200D-01  0.13216373D-01  0.11321008D-01
  0.38945578D-02 -0.89797590D-04 -0.44391514D-04  0.11710197D-03 -0.35626420D-06
 -0.27735737D-06 -0.13169909D-06 -0.54002910D-05 -0.42042128D-05 -0.19963089D-05
  0.24646347D-07  0.19187575D-07  0.91109393D-08  0.96147198D-05 -0.63628529D-06
 -0.14905335D-05 -0.12925860D-07 -0.51124163D-04 -0.50979652D-04 -0.47525275D-04
  0.34695741D-05  0.32192527D-08 -0.16177460D-07  0.37397251D-06  0.63432816D-06
  0.72216019D-06 -0.96928158D-06
MO    2     MO 0.0        OCC NO =    1.0000000  ORB. ENERGY =  -14.166545
  0.13698237D-05  0.25231926D-05  0.40567751D-05  0.52353851D-05  0.44437217D-05
  0.15315795D-05 -0.67014177D-05 -0.23890616D-05  0.84147085D-05  0.14525350D-05
  0.10690071D-05  0.57783567D-06 -0.24012741D-04 -0.17672407D-04 -0.95525534D-05
 -0.88637011D-08 -0.65233259D-08 -0.35260856D-08  0.21599880D-04  0.24042240D-05
 -0.20389686D-04 -0.35415268D-08  0.23008738D-05  0.39750318D-05  0.19705848D-05
 -0.60202827D-06  0.46357566D-08  0.39465018D-08  0.31371690D-06  0.53212325D-06
  0.60580351D-06  0.14589077D-04 -0.16836466D-06 -0.31012490D-06 -0.49861711D-06
 -0.64347973D-06 -0.54617661D-06 -0.18824602D-06  0.10864758D-05  0.38732963D-06
 -0.13642452D-05 -0.38736856D-05 -0.28508761D-05 -0.15409981D-05 -0.22339899D-05
 -0.16441263D-05 -0.88870772D-06  0.78241693D-08  0.57582724D-08  0.31125475D-08
 -0.10199702D-04  0.10351855D-05  0.32463649D-05 -0.24735651D-08  0.52307679D-05
  0.74802207D-06 -0.15587962D-05 -0.53117076D-05  0.25231996D-07 -0.31446848D-08
  0.10153595D-06  0.17222419D-06  0.19607115D-06  0.15838375D-06 -0.54062433D-06
 -0.99582104D-06 -0.16010756D-05 -0.20662341D-05 -0.17537907D-05 -0.60446402D-06
  0.16740098D-05  0.59678606D-06 -0.21019888D-05 -0.50900321D-05 -0.37460580D-05
 -0.20248752D-05  0.16138491D-05  0.11877277D-05  0.64200833D-06  0.92427628D-08
  0.68022999D-08  0.36768808D-08 -0.24095937D-05 -0.35018035D-06  0.16333623D-05
  0.36666529D-08 -0.36141789D-05 -0.10832699D-05 -0.65120646D-06  0.70171046D-06
  0.18770521D-07 -0.70030806D-08  0.15697678D-06  0.26626234D-06  0.30313026D-06
 -0.13213840D-05 -0.21652671D-07 -0.39883861D-07 -0.64125053D-07 -0.82755226D-07
 -0.70241480D-07 -0.24209530D-07  0.18473625D-06  0.65858645D-07 -0.23196610D-06
 -0.20446019D-05 -0.15047444D-05 -0.81336693D-06  0.11719411D-05  0.86250130D-06
  0.46621209D-06  0.32829389D-08  0.24161104D-08  0.13059921D-08  0.52139203D-06
  0.29412527D-06  0.17341072D-06 -0.57782848D-09 -0.99579901D-06 -0.63946947D-06
 -0.51042880D-07  0.15123469D-05  0.18337963D-08 -0.42548971D-10 -0.16008320D-07
 -0.27153140D-07 -0.30912890D-07  0.23093238D-06  0.84317240D-06  0.15531096D-05
  0.24970810D-05  0.32225549D-05  0.27352596D-05  0.94273851D-06 -0.16837476D-05
 -0.60025758D-06  0.21142161D-05  0.44800208D-05  0.32971143D-05  0.17822055D-05
  0.39788733D-05  0.29282900D-05  0.15828431D-05 -0.87439327D-08 -0.64351811D-08
 -0.34784403D-08 -0.71269876D-05 -0.32467982D-05  0.63612403D-05 -0.46932065D-09
  0.67414866D-05  0.52238977D-05  0.68876589D-06 -0.51087494D-05 -0.16924929D-07
 -0.36128347D-10  0.29488237D-05  0.54316844D-05  0.87330323D-05  0.11270230D-04
  0.95660134D-05  0.32970360D-05 -0.47452146D-04 -0.16916734D-04  0.59583807D-04
  0.25732851D-03  0.18938339D-03  0.10236834D-03 -0.14258863D-03 -0.10493947D-03
 -0.56723449D-04  0.85638474D-07  0.63026457D-07  0.34068002D-07 -0.69557784D-04
 -0.58880176D-04  0.15891315D-04 -0.32722443D-07  0.16891545D-03  0.56163506D-04
 -0.34495439D-04 -0.18455716D-03  0.20842575D-06 -0.44820629D-07  0.23038333D-05
  0.42436227D-05  0.68228732D-05  0.88051143D-05  0.74736580D-05  0.25758817D-05
 -0.47044671D-04 -0.16771469D-04  0.59072156D-04 -0.28784326D-03 -0.21184101D-03
 -0.11450747D-03 -0.13455351D-03 -0.99025950D-04 -0.53526986D-04 -0.11987325D-06
 -0.88221868D-07 -0.47687003D-07 -0.76248141D-04  0.22977111D-04  0.18612606D-04
  0.21297533D-07  0.15310640D-03  0.43539229D-04 -0.39379003D-04  0.21235443D-03
  0.17156616D-06  0.11975590D-06  0.29097371D-05  0.49354648D-05  0.56188522D-05
  0.85318842D-05 -0.12842348D-03 -0.23650257D-03 -0.38212371D-03 -0.50011780D-03
 -0.42839571D-03 -0.14737309D-03 -0.30678906D-04 -0.15166143D-04  0.40007314D-04
 -0.16375451D-04 -0.12748550D-04 -0.60534625D-05 -0.82788231D-05 -0.64451960D-05
 -0.30604070D-05 -0.13091608D-07 -0.10192026D-07 -0.48395345D-08 -0.38206760D-04
  0.26621829D-04  0.17896685D-04  0.26489462D-07 -0.14099851D-04 -0.36193988D-04
  0.38828796D-04 -0.39119499D-04 -0.39376240D-07 -0.95411427D-07  0.10469225D-06
  0.17757788D-06  0.20216614D-06 -0.14744558D-04 -0.10731067D-04 -0.19762156D-04
 -0.31930261D-04 -0.41789848D-04 -0.35796750D-04 -0.12314497D-04 -0.32171032D-04
 -0.15903777D-04  0.41953144D-04  0.21274182D-04  0.16562290D-04  0.78643613D-05
 -0.19162081D-04 -0.14917986D-04 -0.70835874D-05  0.23932100D-07  0.18631522D-07
  0.88469056D-08 -0.36874512D-04 -0.13750801D-04  0.20000613D-04 -0.17210869D-07
 -0.12740332D-04 -0.36186702D-04  0.39844794D-04  0.30782977D-04 -0.54005439D-07
  0.12001258D-07  0.20124551D-05  0.37061043D-05  0.59880548D-05  0.78370765D-05
  0.67131584D-05  0.23094043D-05 -0.36697570D-05 -0.18141475D-05  0.47856047D-05
  0.73887274D-05  0.57522423D-05  0.27313681D-05 -0.72473265D-05 -0.56421594D-05
 -0.26790969D-05  0.17332898D-07  0.13493938D-07  0.64073991D-08 -0.64412023D-05
 -0.61859237D-05  0.91450158D-05 -0.65006876D-08  0.49904007D-05 -0.51785462D-06
  0.74394196D-05 -0.35513883D-05 -0.10680984D-07  0.25152591D-07 -0.71797018D-06
 -0.13222021D-05 -0.21363183D-05 -0.27959815D-05 -0.23950087D-05 -0.82391074D-06
  0.21882273D-06  0.10817520D-06 -0.28535925D-06  0.16097561D-05  0.12532208D-05
  0.59507357D-06 -0.68281235D-07 -0.53158032D-07 -0.25241314D-07  0.24004402D-08
  0.18687810D-08  0.88736334D-09  0.80092486D-06 -0.22286548D-07  0.50883275D-06
 -0.24492985D-08  0.73845553D-06  0.73351506D-06  0.18381973D-06  0.12755757D-05
 -0.35941723D-08 -0.16750618D-08 -0.10350904D-06 -0.17557092D-06 -0.19988129D-06
 -0.30018657D-06 -0.34003377D-02 -0.62620059D-02 -0.10117696D-01 -0.13241889D-01
 -0.11342864D-01 -0.39020767D-02  0.91372381D-04  0.45170013D-04 -0.11915560D-03
  0.12302572D-06  0.95777487D-07  0.45478538D-07  0.53139981D-05  0.41370324D-05
  0.19644093D-05 -0.85657851D-08 -0.66686005D-08 -0.31664874D-08 -0.76064603D-06
  0.53810229D-06 -0.19351238D-05  0.14996512D-08  0.46556440D-04  0.44389449D-04
  0.47805416D-04 -0.35824313D-05  0.37944902D-08  0.76710220D-08 -0.21530331D-06
 -0.36519516D-06 -0.41576178D-06 -0.35211759D-06 -0.19685770D-02 -0.36252991D-02
 -0.58574957D-02 -0.76662026D-02 -0.65667896D-02 -0.22590517D-02  0.19311208D-04
  0.95465120D-05 -0.25183087D-04  0.23787564D-04  0.18518998D-04  0.87934755D-05
 -0.28235192D-05 -0.21981548D-05 -0.10437616D-05 -0.85097301D-08 -0.66249608D-08
 -0.31457657D-08 -0.53808845D-04 -0.27108898D-04 -0.10493818D-04 -0.37907008D-07
 -0.84381708D-05  0.26117934D-04  0.70793269D-04 -0.13305018D-04 -0.17125505D-06
 -0.60164967D-07  0.29011870D-05  0.49209622D-05  0.56023416D-05  0.51790345D-05
  0.67394232D+00  0.12411211D+01  0.20053136D+01  0.26245244D+01  0.22481403D+01
  0.77338632D+00 -0.17971438D-01 -0.88841953D-02  0.23435938D-01 -0.23680282D-04
 -0.18435478D-04 -0.87538171D-05 -0.10621555D-02 -0.82690501D-03 -0.39264375D-03
  0.41465247D-06  0.32281357D-06  0.15328330D-06  0.10280207D-02 -0.96390266D-05
  0.43887326D-04 -0.23560684D-07 -0.96882495D-02 -0.94597416D-02 -0.94559846D-02
 -0.11813295D-04 -0.18709894D-06 -0.22201886D-07  0.58488349D-04  0.99207309D-04
  0.11294402D-03 -0.61412780D-04
MO    3     MO 0.0        OCC NO =    1.0000000  ORB. ENERGY =  -14.166008
 -0.39272149D-06 -0.72338646D-06 -0.11630568D-05 -0.15009582D-05 -0.12739924D-05
 -0.43909605D-06  0.24286156D-05  0.86580371D-06 -0.30495177D-05  0.55788636D-05
  0.41058182D-05  0.22193382D-05 -0.97709203D-06 -0.71910025D-06 -0.38869881D-06
  0.53852993D-07  0.39633627D-07  0.21423360D-07 -0.99193451D-05 -0.83623719D-07
  0.27941461D-05 -0.94392323D-08  0.67137078D-05  0.69244121D-06 -0.18000178D-05
  0.37721442D-05 -0.20547113D-07  0.13568357D-07  0.12075043D-06  0.20481558D-06
  0.23317530D-06  0.52659766D-06  0.12951224D-05  0.23855940D-05  0.38355449D-05
  0.49498812D-05  0.42013900D-05  0.14480571D-05 -0.51107523D-05 -0.18219880D-05
  0.64173721D-05 -0.12708774D-08 -0.93531439D-09 -0.50557011D-09 -0.24272391D-04
 -0.17863499D-04 -0.96558454D-05  0.31957618D-07  0.23519515D-07  0.12713120D-07
  0.28535282D-04 -0.14483744D-08 -0.27759262D-04  0.22040323D-07  0.67896192D-05
  0.62861773D-05  0.14388326D-05 -0.45546084D-09  0.13661007D-07 -0.42836024D-07
  0.22980070D-06  0.38978547D-06  0.44375699D-06  0.20426769D-04 -0.38964956D-06
 -0.71772802D-06 -0.11539592D-05 -0.14892175D-05 -0.12640270D-05 -0.43566137D-06
  0.24142162D-05  0.86067032D-06 -0.30314370D-05 -0.55804578D-05 -0.41069915D-05
 -0.22199724D-05 -0.98376703D-06 -0.72401278D-06 -0.39135421D-06  0.59252508D-07
  0.43607452D-07  0.23571351D-07 -0.99382149D-05  0.84071882D-07  0.28113101D-05
 -0.22750955D-08  0.66848788D-05  0.69775579D-06 -0.17892867D-05 -0.37629299D-05
  0.24491380D-07 -0.56382274D-08  0.11947177D-06  0.20264673D-06  0.23070615D-06
  0.51434524D-06  0.59254662D-06  0.10914610D-05  0.17548451D-05  0.22646781D-05
  0.19222271D-05  0.66251756D-06 -0.11660219D-05 -0.41568790D-06  0.14641282D-05
  0.41321242D-05  0.30410764D-05  0.16438081D-05  0.27355013D-05  0.20132185D-05
  0.10882149D-05  0.19464229D-07  0.14324886D-07  0.77431015D-08 -0.51116070D-05
  0.17867716D-05  0.60571448D-05 -0.85021962D-08  0.77838572D-05  0.66409326D-05
 -0.87823065D-06 -0.64730433D-05 -0.13920063D-07 -0.22259015D-07  0.10598337D-06
  0.17976786D-06  0.20465935D-06  0.59702101D-05  0.31699254D-05  0.58389500D-05
  0.93878317D-05  0.12115267D-04  0.10283269D-04  0.35442465D-05 -0.47516226D-04
 -0.16939579D-04  0.59664270D-04  0.26046932D-03  0.19169489D-03  0.10361779D-03
 -0.14577281D-03 -0.10728290D-03 -0.57990155D-04 -0.23062739D-06 -0.16973244D-06
 -0.91746316D-07 -0.68386610D-04 -0.48415503D-04  0.14708119D-04  0.14080023D-06
  0.17109235D-03  0.58251478D-04 -0.36957130D-04 -0.18612586D-03 -0.34355534D-06
  0.12796569D-06  0.31906134D-05  0.58770569D-05  0.94490996D-05  0.12194335D-04
  0.10350381D-04  0.35673773D-05 -0.47599738D-04 -0.16969351D-04  0.59769132D-04
 -0.26056736D-03 -0.19176705D-03 -0.10365679D-03 -0.14583071D-03 -0.10732551D-03
 -0.58013188D-04 -0.44089961D-06 -0.32448430D-06 -0.17539510D-06 -0.68390252D-04
  0.48371176D-04  0.14668570D-04  0.16113188D-06  0.17105229D-03  0.58247565D-04
 -0.36978271D-04  0.18599482D-03  0.57055521D-06  0.32834352D-06  0.59115733D-06
  0.10889020D-05  0.17507306D-05  0.22593683D-05  0.19177202D-05  0.66096422D-06
 -0.11588569D-05 -0.41313357D-06  0.14551314D-05 -0.41341367D-05 -0.30425576D-05
 -0.16446087D-05  0.27329125D-05  0.20113131D-05  0.10871850D-05  0.51916620D-07
  0.38208534D-07  0.20653048D-07 -0.51074506D-05 -0.17961969D-05  0.60653725D-05