 Generated by Multiwfn
GAUSSIAN             93 MOL ORBITALS    432 PRIMITIVES       24 NUCLEI
  B    1    (CENTRE  1)   4.73692523  2.77574759  0.00205302  CHARGE =  5.0
  H    2    (CENTRE  2)   4.76909309  5.02437147  0.00275055  CHARGE =  1.0
  B    3    (CENTRE  3)  -0.00017045  2.76581069 -0.00328147  CHARGE =  5.0
  H    4    (CENTRE  4)   0.00017174  5.01255208 -0.00456310  CHARGE =  1.0
  B    5    (CENTRE  5)  -4.73742408  2.77561251 -0.00105751  CHARGE =  5.0
  H    6    (CENTRE  6)  -4.76975089  5.02423938 -0.00131183  CHARGE =  1.0
  B    7    (CENTRE  7)  -7.12388194 -1.32803223  0.00432364  CHARGE =  5.0
  H    8    (CENTRE  8)  -9.07901919 -2.44583268  0.00829516  CHARGE =  1.0
  B    9    (CENTRE  9)  -2.37600494 -1.33904556 -0.00257796  CHARGE =  5.0
  B   10    (CENTRE 10)   2.37634615 -1.33929281 -0.00086068  CHARGE =  5.0
  B   11    (CENTRE 11)   7.12407178 -1.32759230  0.00123104  CHARGE =  5.0
  H   12    (CENTRE 12)   9.07926691 -2.44532992  0.00085166  CHARGE =  1.0
  N   13    (CENTRE 13)   7.03768996  1.37426247  0.00319931  CHARGE =  7.0
  H   14    (CENTRE 14)   8.67713875  2.33800417  0.00577863  CHARGE =  1.0
  N   15    (CENTRE 15)   2.36729283  1.41766773 -0.00071692  CHARGE =  7.0
  N   16    (CENTRE 16)  -2.36755582  1.41791679 -0.00418918  CHARGE =  7.0
  N   17    (CENTRE 17)  -7.03798024  1.37395005  0.00234250  CHARGE =  7.0
  H   18    (CENTRE 18)  -8.67753294  2.33750766  0.00552558  CHARGE =  1.0
  N   19    (CENTRE 19)  -4.76863245 -2.62852243  0.00095354  CHARGE =  7.0
  H   20    (CENTRE 20)  -4.79875115 -4.53113613  0.00249234  CHARGE =  1.0
  N   21    (CENTRE 21)   0.00026896 -2.63530872 -0.00428104  CHARGE =  7.0
  H   22    (CENTRE 22)   0.00054430 -4.53980871 -0.00141083  CHARGE =  1.0
  N   23    (CENTRE 23)   4.76889167 -2.62847452  0.00012580  CHARGE =  7.0
  H   24    (CENTRE 24)   4.79970626 -4.53104631  0.00040370  CHARGE =  1.0
CENTRE ASSIGNMENTS    1  1  1  1  1  1  1  1  1  1  1  1  1  1  1  1  1  1  1  1
CENTRE ASSIGNMENTS    1  1  1  1  1  1  1  1  2  2  2  2  3  3  3  3  3  3  3  3
CENTRE ASSIGNMENTS    3  3  3  3  3  3  3  3  3  3  3  3  3  3  3  3  3  3  3  3
CENTRE ASSIGNMENTS    4  4  4  4  5  5  5  5  5  5  5  5  5  5  5  5  5  5  5  5
CENTRE ASSIGNMENTS    5  5  5  5  5  5  5  5  5  5  5  5  6  6  6  6  7  7  7  7
CENTRE ASSIGNMENTS    7  7  7  7  7  7  7  7  7  7  7  7  7  7  7  7  7  7  7  7
CENTRE ASSIGNMENTS    7  7  7  7  8  8  8  8  9  9  9  9  9  9  9  9  9  9  9  9
CENTRE ASSIGNMENTS    9  9  9  9  9  9  9  9  9  9  9  9  9  9  9  9 10 10 10 10
CENTRE ASSIGNMENTS   10 10 10 10 10 10 10 10 10 10 10 10 10 10 10 10 10 10 10 10
CENTRE ASSIGNMENTS   10 10 10 10 11 11 11 11 11 11 11 11 11 11 11 11 11 11 11 11
CENTRE ASSIGNMENTS   11 11 11 11 11 11 11 11 11 11 11 11 12 12 12 12 13 13 13 13
CENTRE ASSIGNMENTS   13 13 13 13 13 13 13 13 13 13 13 13 13 13 13 13 13 13 13 13
CENTRE ASSIGNMENTS   13 13 13 13 14 14 14 14 15 15 15 15 15 15 15 15 15 15 15 15
CENTRE ASSIGNMENTS   15 15 15 15 15 15 15 15 15 15 15 15 15 15 15 15 16 16 16 16
CENTRE ASSIGNMENTS   16 16 16 16 16 16 16 16 16 16 16 16 16 16 16 16 16 16 16 16
CENTRE ASSIGNMENTS   16 16 16 16 17 17 17 17 17 17 17 17 17 17 17 17 17 17 17 17
CENTRE ASSIGNMENTS   17 17 17 17 17 17 17 17 17 17 17 17 18 18 18 18 19 19 19 19
CENTRE ASSIGNMENTS   19 19 19 19 19 19 19 19 19 19 19 19 19 19 19 19 19 19 19 19
CENTRE ASSIGNMENTS   19 19 19 19 20 20 20 20 21 21 21 21 21 21 21 21 21 21 21 21
CENTRE ASSIGNMENTS   21 21 21 21 21 21 21 21 21 21 21 21 21 21 21 21 22 22 22 22
CENTRE ASSIGNMENTS   23 23 23 23 23 23 23 23 23 23 23 23 23 23 23 23 23 23 23 23
CENTRE ASSIGNMENTS   23 23 23 23 23 23 23 23 24 24 24 24
TYPE ASSIGNMENTS      1  1  1  1  1  1  1  1  1  2  2  2  3  3  3  4  4  4  1  2
TYPE ASSIGNMENTS      3  4  5  6  7  8  9 10  1  1  1  1  1  1  1  1  1  1  1  1
TYPE ASSIGNMENTS      1  2  2  2  3  3  3  4  4  4  1  2  3  4  5  6  7  8  9 10
TYPE ASSIGNMENTS      1  1  1  1  1  1  1  1  1  1  1  1  1  2  2  2  3  3  3  4
TYPE ASSIGNMENTS      4  4  1  2  3  4  5  6  7  8  9 10  1  1  1  1  1  1  1  1
TYPE ASSIGNMENTS      1  1  1  1  1  2  2  2  3  3  3  4  4  4  1  2  3  4  5  6
TYPE ASSIGNMENTS      7  8  9 10  1  1  1  1  1  1  1  1  1  1  1  1  1  2  2  2
TYPE ASSIGNMENTS      3  3  3  4  4  4  1  2  3  4  5  6  7  8  9 10  1  1  1  1
TYPE ASSIGNMENTS      1  1  1  1  1  2  2  2  3  3  3  4  4  4  1  2  3  4  5  6
TYPE ASSIGNMENTS      7  8  9 10  1  1  1  1  1  1  1  1  1  2  2  2  3  3  3  4
TYPE ASSIGNMENTS      4  4  1  2  3  4  5  6  7  8  9 10  1  1  1  1  1  1  1  1
TYPE ASSIGNMENTS      1  1  1  1  1  2  2  2  3  3  3  4  4  4  1  2  3  4  5  6
TYPE ASSIGNMENTS      7  8  9 10  1  1  1  1  1  1  1  1  1  1  1  1  1  2  2  2
TYPE ASSIGNMENTS      3  3  3  4  4  4  1  2  3  4  5  6  7  8  9 10  1  1  1  1
TYPE ASSIGNMENTS      1  1  1  1  1  2  2  2  3  3  3  4  4  4  1  2  3  4  5  6
TYPE ASSIGNMENTS      7  8  9 10  1  1  1  1  1  1  1  1  1  2  2  2  3  3  3  4
TYPE ASSIGNMENTS      4  4  1  2  3  4  5  6  7  8  9 10  1  1  1  1  1  1  1  1
TYPE ASSIGNMENTS      1  1  1  1  1  2  2  2  3  3  3  4  4  4  1  2  3  4  5  6
TYPE ASSIGNMENTS      7  8  9 10  1  1  1  1  1  1  1  1  1  1  1  1  1  2  2  2
TYPE ASSIGNMENTS      3  3  3  4  4  4  1  2  3  4  5  6  7  8  9 10  1  1  1  1
TYPE ASSIGNMENTS      1  1  1  1  1  1  1  1  1  2  2  2  3  3  3  4  4  4  1  2
TYPE ASSIGNMENTS      3  4  5  6  7  8  9 10  1  1  1  1
EXPONENTS  0.2068882D+04 0.3106496D+03 0.7068303D+02 0.1986108D+02 0.6299305D+01
EXPONENTS  0.2127027D+01 0.4727971D+01 0.1190338D+01 0.3594117D+00 0.4727971D+01
EXPONENTS  0.1190338D+01 0.3594117D+00 0.4727971D+01 0.1190338D+01 0.3594117D+00
EXPONENTS  0.4727971D+01 0.1190338D+01 0.3594117D+00 0.1267512D+00 0.1267512D+00
EXPONENTS  0.1267512D+00 0.1267512D+00 0.6000000D+00 0.6000000D+00 0.6000000D+00
EXPONENTS  0.6000000D+00 0.6000000D+00 0.6000000D+00 0.1873114D+02 0.2825394D+01
EXPONENTS  0.6401217D+00 0.1612778D+00 0.2068882D+04 0.3106496D+03 0.7068303D+02
EXPONENTS  0.1986108D+02 0.6299305D+01 0.2127027D+01 0.4727971D+01 0.1190338D+01
EXPONENTS  0.3594117D+00 0.4727971D+01 0.1190338D+01 0.3594117D+00 0.4727971D+01
EXPONENTS  0.1190338D+01 0.3594117D+00 0.4727971D+01 0.1190338D+01 0.3594117D+00
EXPONENTS  0.1267512D+00 0.1267512D+00 0.1267512D+00 0.1267512D+00 0.6000000D+00
EXPONENTS  0.6000000D+00 0.6000000D+00 0.6000000D+00 0.6000000D+00 0.6000000D+00
EXPONENTS  0.1873114D+02 0.2825394D+01 0.6401217D+00 0.1612778D+00 0.2068882D+04
EXPONENTS  0.3106496D+03 0.7068303D+02 0.1986108D+02 0.6299305D+01 0.2127027D+01
EXPONENTS  0.4727971D+01 0.1190338D+01 0.3594117D+00 0.4727971D+01 0.1190338D+01
EXPONENTS  0.3594117D+00 0.4727971D+01 0.1190338D+01 0.3594117D+00 0.4727971D+01
EXPONENTS  0.1190338D+01 0.3594117D+00 0.1267512D+00 0.1267512D+00 0.1267512D+00
EXPONENTS  0.1267512D+00 0.6000000D+00 0.6000000D+00 0.6000000D+00 0.6000000D+00
EXPONENTS  0.6000000D+00 0.6000000D+00 0.1873114D+02 0.2825394D+01 0.6401217D+00
EXPONENTS  0.1612778D+00 0.2068882D+04 0.3106496D+03 0.7068303D+02 0.1986108D+02
EXPONENTS  0.6299305D+01 0.2127027D+01 0.4727971D+01 0.1190338D+01 0.3594117D+00
EXPONENTS  0.4727971D+01 0.1190338D+01 0.3594117D+00 0.4727971D+01 0.1190338D+01
EXPONENTS  0.3594117D+00 0.4727971D+01 0.1190338D+01 0.3594117D+00 0.1267512D+00
EXPONENTS  0.1267512D+00 0.1267512D+00 0.1267512D+00 0.6000000D+00 0.6000000D+00
EXPONENTS  0.6000000D+00 0.6000000D+00 0.6000000D+00 0.6000000D+00 0.1873114D+02
EXPONENTS  0.2825394D+01 0.6401217D+00 0.1612778D+00 0.2068882D+04 0.3106496D+03
EXPONENTS  0.7068303D+02 0.1986108D+02 0.6299305D+01 0.2127027D+01 0.4727971D+01
EXPONENTS  0.1190338D+01 0.3594117D+00 0.4727971D+01 0.1190338D+01 0.3594117D+00
EXPONENTS  0.4727971D+01 0.1190338D+01 0.3594117D+00 0.4727971D+01 0.1190338D+01
EXPONENTS  0.3594117D+00 0.1267512D+00 0.1267512D+00 0.1267512D+00 0.1267512D+00
EXPONENTS  0.6000000D+00 0.6000000D+00 0.6000000D+00 0.6000000D+00 0.6000000D+00
EXPONENTS  0.6000000D+00 0.2068882D+04 0.3106496D+03 0.7068303D+02 0.1986108D+02
EXPONENTS  0.6299305D+01 0.2127027D+01 0.4727971D+01 0.1190338D+01 0.3594117D+00
EXPONENTS  0.4727971D+01 0.1190338D+01 0.3594117D+00 0.4727971D+01 0.1190338D+01
EXPONENTS  0.3594117D+00 0.4727971D+01 0.1190338D+01 0.3594117D+00 0.1267512D+00
EXPONENTS  0.1267512D+00 0.1267512D+00 0.1267512D+00 0.6000000D+00 0.6000000D+00
EXPONENTS  0.6000000D+00 0.6000000D+00 0.6000000D+00 0.6000000D+00 0.2068882D+04
EXPONENTS  0.3106496D+03 0.7068303D+02 0.1986108D+02 0.6299305D+01 0.2127027D+01
EXPONENTS  0.4727971D+01 0.1190338D+01 0.3594117D+00 0.4727971D+01 0.1190338D+01
EXPONENTS  0.3594117D+00 0.4727971D+01 0.1190338D+01 0.3594117D+00 0.4727971D+01
EXPONENTS  0.1190338D+01 0.3594117D+00 0.1267512D+00 0.1267512D+00 0.1267512D+00
EXPONENTS  0.1267512D+00 0.6000000D+00 0.6000000D+00 0.6000000D+00 0.6000000D+00
EXPONENTS  0.6000000D+00 0.6000000D+00 0.1873114D+02 0.2825394D+01 0.6401217D+00
EXPONENTS  0.1612778D+00 0.4173511D+04 0.6274579D+03 0.1429021D+03 0.4023433D+02
EXPONENTS  0.1282021D+02 0.4390437D+01 0.1162636D+02 0.2716280D+01 0.7722184D+00
EXPONENTS  0.1162636D+02 0.2716280D+01 0.7722184D+00 0.1162636D+02 0.2716280D+01
EXPONENTS  0.7722184D+00 0.1162636D+02 0.2716280D+01 0.7722184D+00 0.2120315D+00
EXPONENTS  0.2120315D+00 0.2120315D+00 0.2120315D+00 0.8000000D+00 0.8000000D+00
EXPONENTS  0.8000000D+00 0.8000000D+00 0.8000000D+00 0.8000000D+00 0.1873114D+02
EXPONENTS  0.2825394D+01 0.6401217D+00 0.1612778D+00 0.4173511D+04 0.6274579D+03
EXPONENTS  0.1429021D+03 0.4023433D+02 0.1282021D+02 0.4390437D+01 0.1162636D+02
EXPONENTS  0.2716280D+01 0.7722184D+00 0.1162636D+02 0.2716280D+01 0.7722184D+00
EXPONENTS  0.1162636D+02 0.2716280D+01 0.7722184D+00 0.1162636D+02 0.2716280D+01
EXPONENTS  0.7722184D+00 0.2120315D+00 0.2120315D+00 0.2120315D+00 0.2120315D+00
EXPONENTS  0.8000000D+00 0.8000000D+00 0.8000000D+00 0.8000000D+00 0.8000000D+00
EXPONENTS  0.8000000D+00 0.4173511D+04 0.6274579D+03 0.1429021D+03 0.4023433D+02
EXPONENTS  0.1282021D+02 0.4390437D+01 0.1162636D+02 0.2716280D+01 0.7722184D+00
EXPONENTS  0.1162636D+02 0.2716280D+01 0.7722184D+00 0.1162636D+02 0.2716280D+01
EXPONENTS  0.7722184D+00 0.1162636D+02 0.2716280D+01 0.7722184D+00 0.2120315D+00
EXPONENTS  0.2120315D+00 0.2120315D+00 0.2120315D+00 0.8000000D+00 0.8000000D+00
EXPONENTS  0.8000000D+00 0.8000000D+00 0.8000000D+00 0.8000000D+00 0.4173511D+04
EXPONENTS  0.6274579D+03 0.1429021D+03 0.4023433D+02 0.1282021D+02 0.4390437D+01
EXPONENTS  0.1162636D+02 0.2716280D+01 0.7722184D+00 0.1162636D+02 0.2716280D+01
EXPONENTS  0.7722184D+00 0.1162636D+02 0.2716280D+01 0.7722184D+00 0.1162636D+02
EXPONENTS  0.2716280D+01 0.7722184D+00 0.2120315D+00 0.2120315D+00 0.2120315D+00
EXPONENTS  0.2120315D+00 0.8000000D+00 0.8000000D+00 0.8000000D+00 0.8000000D+00
EXPONENTS  0.8000000D+00 0.8000000D+00 0.1873114D+02 0.2825394D+01 0.6401217D+00
EXPONENTS  0.1612778D+00 0.4173511D+04 0.6274579D+03 0.1429021D+03 0.4023433D+02
EXPONENTS  0.1282021D+02 0.4390437D+01 0.1162636D+02 0.2716280D+01 0.7722184D+00
EXPONENTS  0.1162636D+02 0.2716280D+01 0.7722184D+00 0.1162636D+02 0.2716280D+01
EXPONENTS  0.7722184D+00 0.1162636D+02 0.2716280D+01 0.7722184D+00 0.2120315D+00
EXPONENTS  0.2120315D+00 0.2120315D+00 0.2120315D+00 0.8000000D+00 0.8000000D+00
EXPONENTS  0.8000000D+00 0.8000000D+00 0.8000000D+00 0.8000000D+00 0.1873114D+02
EXPONENTS  0.2825394D+01 0.6401217D+00 0.1612778D+00 0.4173511D+04 0.6274579D+03
EXPONENTS  0.1429021D+03 0.4023433D+02 0.1282021D+02 0.4390437D+01 0.1162636D+02
EXPONENTS  0.2716280D+01 0.7722184D+00 0.1162636D+02 0.2716280D+01 0.7722184D+00
EXPONENTS  0.1162636D+02 0.2716280D+01 0.7722184D+00 0.1162636D+02 0.2716280D+01
EXPONENTS  0.7722184D+00 0.2120315D+00 0.2120315D+00 0.2120315D+00 0.2120315D+00
EXPONENTS  0.8000000D+00 0.8000000D+00 0.8000000D+00 0.8000000D+00 0.8000000D+00
EXPONENTS  0.8000000D+00 0.1873114D+02 0.2825394D+01 0.6401217D+00 0.1612778D+00
EXPONENTS  0.4173511D+04 0.6274579D+03 0.1429021D+03 0.4023433D+02 0.1282021D+02
EXPONENTS  0.4390437D+01 0.1162636D+02 0.2716280D+01 0.7722184D+00 0.1162636D+02
EXPONENTS  0.2716280D+01 0.7722184D+00 0.1162636D+02 0.2716280D+01 0.7722184D+00
EXPONENTS  0.1162636D+02 0.2716280D+01 0.7722184D+00 0.2120315D+00 0.2120315D+00
EXPONENTS  0.2120315D+00 0.2120315D+00 0.8000000D+00 0.8000000D+00 0.8000000D+00
EXPONENTS  0.8000000D+00 0.8000000D+00 0.8000000D+00 0.1873114D+02 0.2825394D+01
EXPONENTS  0.6401217D+00 0.1612778D+00
MO    1     MO 0.0        OCC NO =    1.0000000  ORB. ENERGY =  -14.536778
  0.31827943D-06  0.58626543D-06  0.94259432D-06  0.12164451D-05  0.10325016D-05
  0.35586349D-06  0.14216836D-07  0.50683151D-08 -0.17851525D-07  0.98163270D-06
  0.72244201D-06  0.39050515D-06 -0.50890304D-05 -0.37453207D-05 -0.20244767D-05
  0.41008870D-07  0.30180871D-07  0.16313815D-07 -0.12523911D-04 -0.80781972D-06
  0.63634699D-05 -0.79902296D-08  0.85265626D-05  0.21503881D-05  0.99116330D-08
  0.65479524D-05 -0.13012777D-07  0.15579096D-07  0.10500684D-06  0.17811147D-06
  0.20277362D-06 -0.24684931D-05  0.38456266D-06  0.70835804D-06  0.11388941D-05
  0.14697757D-05  0.12475251D-05  0.42997379D-06 -0.16326419D-05 -0.58203835D-06
  0.20500447D-05 -0.36490991D-08 -0.26855895D-08 -0.14516549D-08 -0.18097773D-04
 -0.13319229D-04 -0.71995089D-05  0.25838449D-07  0.19016055D-07  0.10278842D-07
  0.26317277D-04 -0.15009080D-08 -0.31112578D-04  0.21295164D-07  0.61951884D-05
  0.48685987D-05 -0.78670212D-06  0.24305394D-08  0.15209634D-07 -0.36986770D-07
  0.36891747D-06  0.62575385D-06  0.71239864D-06  0.24258953D-04  0.32113057D-06
  0.59151718D-06  0.95103806D-06  0.12273420D-05  0.10417507D-05  0.35905131D-06
  0.46828997D-09  0.16694581D-09 -0.58801342D-09 -0.98645112D-06 -0.72598816D-06
 -0.39242197D-06 -0.50948867D-05 -0.37496307D-05 -0.20268064D-05  0.41685492D-07
  0.30678838D-07  0.16582984D-07 -0.12546440D-04  0.80726243D-06  0.63809917D-05
 -0.22545148D-08  0.84938730D-05  0.21560210D-05  0.21141532D-07 -0.65379678D-05
  0.14912029D-07 -0.80547023D-09  0.10364775D-06  0.17580620D-06  0.20014914D-06
 -0.24799441D-05  0.12034757D-05  0.22167822D-05  0.35641303D-05  0.45996127D-05
  0.39040870D-05  0.13455883D-05 -0.31379636D-05 -0.11186869D-05  0.39402183D-05
  0.73687534D-05  0.54231048D-05  0.29313776D-05  0.74625016D-06  0.54920996D-06
  0.29686717D-06  0.46499651D-08  0.34221864D-08  0.18498113D-08 -0.60194257D-05
  0.78723293D-06  0.59455660D-05 -0.56370576D-08  0.92571854D-05  0.78917885D-05
  0.45697934D-06 -0.73988846D-05 -0.17973466D-07 -0.12594993D-07  0.10911488D-06
  0.18507949D-06  0.21070646D-06  0.51902470D-05  0.34973944D-05  0.64421424D-05
  0.10357641D-04  0.13366834D-04  0.11345582D-04  0.39103846D-05 -0.51815443D-04
 -0.18472254D-04  0.65062629D-04  0.28375140D-03  0.20882956D-03  0.11287968D-03
 -0.15500815D-03 -0.11407973D-03 -0.61664082D-04 -0.27270441D-06 -0.20069942D-06
 -0.10848505D-06 -0.70541718D-04 -0.58730503D-04  0.22747111D-04  0.12466547D-06
  0.18672721D-03  0.65381016D-04 -0.42207082D-04 -0.20128153D-03 -0.43189729D-06
  0.17064935D-06  0.35186526D-05  0.64812998D-05  0.10420598D-04  0.13448082D-04
  0.11414544D-04  0.39341532D-05 -0.51909571D-04 -0.18505810D-04  0.65180821D-04
 -0.28386489D-03 -0.20891309D-03 -0.11292482D-03 -0.15507307D-03 -0.11412751D-03
 -0.61689908D-04 -0.49213432D-06 -0.36219097D-06 -0.19577688D-06 -0.70548820D-04
  0.58695568D-04  0.22698022D-04  0.15203143D-06  0.18667180D-03  0.65370089D-04
 -0.42233359D-04  0.20114742D-03  0.66156014D-06  0.36508456D-06  0.12023069D-05
  0.22146293D-05  0.35606688D-05  0.45951456D-05  0.39002954D-05  0.13442814D-05
 -0.31306212D-05 -0.11160694D-05  0.39309988D-05 -0.73645018D-05 -0.54199757D-05
 -0.29296863D-05  0.74702624D-06  0.54978113D-06  0.29717591D-06  0.44097559D-07
  0.32454022D-07  0.17542533D-07 -0.60170724D-05 -0.79519160D-06  0.59525132D-05
 -0.63596041D-08  0.92607907D-05  0.79069347D-05  0.45384234D-06  0.74176720D-05
 -0.25587470D-08 -0.24057697D-07  0.10975668D-06  0.18616810D-06  0.21194580D-06
  0.52001687D-05  0.19356941D-05  0.35647424D-05  0.57596525D-05  0.75381469D-05
  0.64570984D-05  0.22213167D-05 -0.44393458D-05 -0.21945943D-05  0.57891991D-05
 -0.63028948D-05 -0.49069043D-05 -0.23299717D-05 -0.55636757D-05 -0.43314104D-05
 -0.20567069D-05 -0.10440195D-07 -0.81278585D-08 -0.38593947D-08 -0.68092769D-05
  0.52289524D-05  0.88281671D-05  0.17732925D-07  0.36903248D-05 -0.29568151D-05
  0.86986593D-05  0.22019643D-05  0.28345602D-08 -0.12539132D-07 -0.11721348D-05
 -0.19881625D-05 -0.22634527D-05 -0.29697625D-05 -0.30172660D-05 -0.55565475D-05
 -0.89778670D-05 -0.11750098D-04 -0.10065012D-04 -0.34624807D-05 -0.37970074D-04
 -0.18770538D-04  0.49515477D-04 -0.18942383D-04 -0.14746948D-04 -0.70023725D-05
 -0.14733281D-04 -0.11470095D-04 -0.54464068D-05  0.75699618D-07  0.58933361D-07
  0.27983645D-07 -0.54928396D-04  0.16511047D-04  0.21216232D-04 -0.40908744D-07
 -0.13501917D-04 -0.39422137D-04  0.43258382D-04 -0.32000341D-04 -0.17786780D-06
 -0.92687990D-08 -0.29961559D-05 -0.55176713D-05 -0.89150537D-05 -0.11667889D-04
 -0.99945924D-05 -0.34382556D-05 -0.37984165D-04 -0.18777504D-04  0.49533852D-04
  0.18965381D-04  0.14764852D-04  0.70108738D-05 -0.14821646D-04 -0.11538888D-04
 -0.54790724D-05  0.88288796D-07  0.68734237D-07  0.32637447D-07 -0.55020637D-04
 -0.16499837D-04  0.21244618D-04 -0.82876248D-07 -0.13430106D-04 -0.39309689D-04
  0.43323777D-04  0.31844036D-04  0.79107908D-07  0.10764442D-06  0.19310738D-05
  0.35562338D-05  0.57459050D-05  0.75201545D-05  0.64416863D-05  0.22160147D-05
 -0.44272278D-05 -0.21886038D-05  0.57733966D-05  0.63006277D-05  0.49051393D-05
  0.23291336D-05 -0.55616728D-05 -0.43298511D-05 -0.20559664D-05 -0.90542689D-09
 -0.70488929D-09 -0.33470637D-09 -0.67662656D-05 -0.52196967D-05  0.88240216D-05
  0.24553889D-08  0.36792528D-05 -0.29578066D-05  0.86831009D-05 -0.21818410D-05
  0.81782157D-08  0.20976724D-07 -0.11720333D-05 -0.19879904D-05 -0.22632567D-05
 -0.29697912D-05 -0.24646358D-04 -0.45388327D-04 -0.73335171D-04 -0.95979974D-04
 -0.82215449D-04 -0.28283067D-04 -0.35157161D-04 -0.17379972D-04  0.45847253D-04
  0.18722787D-04  0.14575988D-04  0.69211949D-05 -0.60284451D-05 -0.46932408D-05
 -0.22285167D-05  0.35987059D-07  0.28016500D-07  0.13303225D-07 -0.55134129D-04
 -0.21533507D-04 -0.12934524D-04 -0.10261477D-07 -0.41005980D-04 -0.11533483D-05
  0.47242003D-04 -0.12933504D-04  0.18259434D-06  0.19868856D-07  0.23942913D-05
  0.40611711D-05  0.46234998D-05  0.69460442D-05  0.67388482D+00  0.12410152D+01
  0.20051425D+01  0.26243004D+01  0.22479485D+01  0.77332033D+00 -0.18150676D-01
 -0.89728017D-02  0.23669676D-01  0.14477601D-06  0.11271043D-06  0.53518901D-07
 -0.90672090D-03 -0.70589670D-03 -0.33518472D-03  0.30126062D-05  0.23453621D-05
  0.11136609D-05  0.11276909D-02 -0.57195406D-07  0.33648146D-04 -0.16818909D-06
 -0.99760745D-02 -0.97363247D-02 -0.95431723D-02  0.16850613D-07 -0.43105629D-06
 -0.29345242D-06  0.65899901D-04  0.11177871D-03  0.12725611D-03 -0.75204102D-04
 -0.24654252D-04 -0.45402864D-04 -0.73358660D-04 -0.96010715D-04 -0.82241782D-04
 -0.28292126D-04 -0.35153731D-04 -0.17378277D-04  0.45842780D-04 -0.18662459D-04
 -0.14529022D-04 -0.68988937D-05 -0.60656832D-05 -0.47222312D-05 -0.22422824D-05
  0.46397863D-07  0.36121478D-07  0.17151755D-07 -0.55124327D-04  0.21542592D-04
 -0.12910663D-04 -0.42077506D-07 -0.41099559D-04 -0.11449968D-05  0.47213458D-04
  0.12921421D-04 -0.10271025D-06 -0.12906631D-06  0.23930320D-05  0.40590351D-05
  0.46210680D-05  0.69511243D-05
MO    2     MO 0.0        OCC NO =    1.0000000  ORB. ENERGY =  -14.506847
 -0.48045294D-06 -0.88498635D-06 -0.14228762D-05 -0.18362627D-05 -0.15585941D-05
 -0.53718729D-06  0.15149180D-05  0.54006968D-06 -0.19022234D-05  0.46670554D-05
  0.34347642D-05  0.18566100D-05  0.11710016D-05  0.86180987D-06  0.46583835D-06
  0.21305675D-07  0.15680116D-07  0.84756506D-08 -0.20925728D-05  0.28182030D-06
  0.14539744D-05 -0.14660738D-08 -0.33366354D-05 -0.84409089D-06 -0.57831482D-06
 -0.40598009D-06 -0.16388967D-07 -0.39722539D-08  0.13046193D-06  0.22128812D-06
  0.25192870D-06 -0.11869028D-05  0.24021203D-06  0.44246658D-06  0.71139533D-06
  0.91807615D-06  0.77925021D-06  0.26857750D-06 -0.27830294D-06 -0.99215257D-07
  0.34945413D-06  0.31120206D-06  0.22903214D-06  0.12379987D-06 -0.48105611D-05
 -0.35403786D-05 -0.19136984D-05 -0.78353037D-08 -0.57664669D-08 -0.31169769D-08
 -0.10778086D-04 -0.16604333D-05  0.48887002D-05  0.10210670D-07  0.74376285D-05
  0.12533451D-05 -0.64944858D-06  0.70625003D-05  0.14398203D-07 -0.19609027D-07
  0.13133138D-06  0.22276288D-06  0.25360766D-06 -0.14291552D-05  0.77313779D-06
  0.14241070D-05  0.22896714D-05  0.29548868D-05  0.25080666D-05  0.86443386D-06
 -0.47329805D-05 -0.16873119D-05  0.59430187D-05 -0.15478033D-05 -0.11391207D-05
 -0.61573453D-06 -0.18721135D-04 -0.13777999D-04 -0.74474897D-05  0.10669070D-07
  0.78520047D-08  0.42442829D-08  0.18385083D-04 -0.27088905D-05 -0.20251544D-04
  0.75063060D-08  0.16932038D-05  0.17956474D-05  0.43004668D-06  0.10605503D-05
 -0.19584329D-08  0.44295786D-08  0.42735366D-06  0.72487270D-06  0.82524194D-06
  0.15324735D-04  0.27671189D-05  0.50969871D-05  0.81949078D-05  0.10575764D-04
  0.89765611D-05  0.30938745D-05 -0.49883593D-04 -0.17783547D-04  0.62636880D-04
  0.30586362D-03  0.22510326D-03  0.12167618D-03 -0.14077144D-03 -0.10360209D-03
 -0.56000551D-04 -0.46544436D-06 -0.34254824D-06 -0.18515929D-06 -0.80611201D-04
 -0.22960483D-04  0.22981695D-04  0.41336709D-07  0.16579097D-03  0.47914742D-04
 -0.41626277D-04 -0.22563379D-03 -0.58899782D-06  0.29461382D-06  0.30638432D-05
  0.51968580D-05  0.59164391D-05  0.12470415D-04  0.32771755D-05  0.60365028D-05
  0.97054560D-05  0.12525170D-04  0.10631190D-04  0.36641611D-05 -0.55453865D-04
 -0.19769354D-04  0.69631253D-04 -0.26939359D-03 -0.19826280D-03 -0.10716797D-03
 -0.14779851D-03 -0.10877373D-03 -0.58796001D-04  0.37162908D-06  0.27350399D-06
  0.14783846D-06 -0.70763789D-04  0.63042073D-04  0.19922931D-04 -0.62978884D-07
  0.16782883D-03  0.57067546D-04 -0.39004198D-04  0.17984555D-03 -0.55242689D-06
 -0.30045292D-06  0.11417414D-05  0.21030686D-05  0.33813022D-05  0.43636678D-05
  0.37038203D-05  0.12765640D-05 -0.30284221D-05 -0.10796353D-05  0.38026714D-05
 -0.56793909D-05 -0.41798022D-05 -0.22593291D-05  0.10476858D-05  0.77105440D-06
  0.41678184D-06 -0.34719767D-07 -0.25552345D-07 -0.13811935D-07 -0.80967123D-05
  0.46128813D-05  0.67058526D-05  0.22650117D-07  0.90486313D-05  0.69937762D-05
  0.82333213D-06  0.68972031D-05  0.40358881D-07  0.29936272D-07  0.71222221D-07
  0.13119015D-06  0.21092680D-06  0.27220711D-06  0.23104559D-06  0.79632505D-07
 -0.36767190D-06 -0.13107538D-06  0.46167125D-06 -0.15964451D-07 -0.11749191D-07
 -0.63508483D-08  0.43832444D-06  0.32258908D-06  0.17437067D-06  0.69194152D-08
  0.50924100D-08  0.27526255D-08 -0.34921872D-06  0.16730922D-06  0.41358810D-07
 -0.57621749D-09  0.89312405D-07 -0.46020606D-06 -0.35788626D-07 -0.37470862D-06
 -0.48630027D-08 -0.76814208D-08 -0.60305477D-09 -0.10228950D-08 -0.11645298D-08
 -0.36839554D-07 -0.26950298D-06 -0.49631225D-06 -0.80190539D-06 -0.10495218D-05
 -0.89900945D-06 -0.30926967D-06  0.12087989D-06  0.59757074D-07 -0.15763533D-06
 -0.15607819D-05 -0.12150936D-05 -0.57696943D-06 -0.10491071D-06 -0.81674665D-07
 -0.38782020D-07 -0.44629949D-08 -0.34745128D-08 -0.16498216D-08  0.10267127D-05
  0.14094633D-06  0.47897458D-06  0.21948652D-08  0.46087718D-06  0.43247162D-06
  0.24395664D-06 -0.14239518D-05 -0.74317809D-09 -0.27423543D-09 -0.10824264D-06
 -0.18360001D-06 -0.20902212D-06 -0.34869540D-06  0.17793030D-05  0.32767351D-05
  0.52943112D-05  0.69291153D-05  0.59354082D-05  0.20418492D-05 -0.37483959D-05
 -0.18530227D-05  0.48881551D-05 -0.61007208D-05 -0.47495086D-05 -0.22552347D-05
 -0.72628544D-05 -0.56542482D-05 -0.26848370D-05  0.29657097D-07  0.23088524D-07
  0.10963248D-07 -0.53234083D-05  0.45937815D-05  0.94434300D-05 -0.18568651D-07
  0.44308270D-05 -0.21773453D-05  0.76946416D-05  0.45354459D-05  0.41400116D-08
  0.19140287D-07 -0.10606391D-04 -0.19532555D-04 -0.31559287D-04 -0.41304323D-04
 -0.35380854D-04 -0.12171424D-04 -0.31933208D-04 -0.15786208D-04  0.41643006D-04
 -0.15059599D-04 -0.11724138D-04 -0.55670355D-05 -0.13439222D-04 -0.10462649D-04
 -0.49680357D-05  0.19769611D-07  0.15390958D-07  0.73081711D-08 -0.37172899D-04
  0.85657323D-05  0.19794682D-04 -0.31986746D-07 -0.15025989D-04 -0.41355611D-04
  0.36531955D-04 -0.36234588D-04  0.14435739D-06  0.13909125D-06 -0.31698468D-04
 -0.58375377D-04 -0.94318706D-04 -0.12344291D-03 -0.10573992D-03 -0.36375756D-04
 -0.32939174D-04 -0.16283508D-04  0.42954851D-04  0.98545583D-05  0.76719310D-05
  0.36429042D-05 -0.41759022D-05 -0.32510066D-05 -0.15436929D-05 -0.10209230D-07
 -0.79480488D-08 -0.37740147D-08 -0.38383348D-04 -0.22320098D-04  0.18114129D-04
  0.17593926D-07 -0.17555643D-04 -0.41591074D-04  0.34823663D-04  0.39684081D-04
  0.15098829D-06  0.45017901D-07  0.10978913D-05  0.18622315D-05  0.21200847D-05
 -0.14340864D-04  0.67391236D+00  0.12410659D+01  0.20052244D+01  0.26244077D+01
  0.22480404D+01  0.77335193D+00 -0.18091244D-01 -0.89434218D-02  0.23592174D-01
  0.12994206D-03  0.10116197D-03  0.48035280D-04 -0.84705043D-03 -0.65944229D-03
 -0.31312652D-03  0.11644734D-05  0.90656113D-06  0.43046729D-06  0.10706680D-02
  0.48101414D-05  0.23870895D-04 -0.70953777D-07 -0.98556564D-02 -0.96256623D-02
 -0.95045431D-02  0.18072857D-04  0.11229323D-05 -0.17527988D-08  0.63847180D-04
  0.10829690D-03  0.12329219D-03 -0.75085300D-04  0.37485023D-04  0.69031802D-04
  0.11153659D-03  0.14597741D-03  0.12504274D-03  0.43016150D-04 -0.34956720D-04
 -0.17280884D-04  0.45585864D-04 -0.20060228D-04 -0.15617208D-04 -0.74156029D-05
 -0.65597124D-05 -0.51068408D-05 -0.24249087D-05  0.98853462D-09  0.76958999D-09
  0.36542855D-09 -0.51850069D-04  0.25636994D-04 -0.11304411D-04 -0.23095099D-07
 -0.42350914D-04 -0.14937507D-05  0.42810749D-04  0.11755258D-04  0.16685538D-06
  0.43273582D-07  0.24627289D-05  0.41772543D-05  0.47556563D-05  0.68869515D-05
  0.24947787D-03  0.45943435D-03  0.74232074D-03  0.97153828D-03  0.83220960D-03
  0.28628975D-03 -0.64361452D-05 -0.31817138D-05  0.83931572D-05 -0.52355582D-06
 -0.40759657D-06 -0.19354127D-06  0.45289126D-06  0.35258308D-06  0.16741892D-06
  0.22501081D-07  0.17517451D-07  0.83179053D-08  0.36560696D-05 -0.33134666D-06
 -0.24785369D-05 -0.12815556D-07 -0.58431456D-05 -0.67737034D-05 -0.29826396D-05
  0.36342445D-05  0.38607184D-08 -0.16775740D-07  0.12330693D-06  0.20915188D-06
  0.23811203D-06 -0.11895222D-05
MO    3     MO 0.0        OCC NO =    1.0000000  ORB. ENERGY =  -14.506844
  0.77384942D-06  0.14254178D-05  0.22917789D-05  0.29576066D-05  0.25103752D-05
  0.86522953D-06 -0.47303567D-05 -0.16863766D-05  0.59397242D-05  0.15489331D-05
  0.11399522D-05  0.61618399D-06 -0.18728069D-04 -0.13783102D-04 -0.74502481D-05
 -0.58412308D-08 -0.42989099D-08 -0.23237110D-08  0.18388516D-04  0.27071926D-05
 -0.20257243D-04 -0.32532586D-08  0.17000337D-05  0.18097062D-05  0.43258971D-06
 -0.10610024D-05  0.46632092D-08  0.28355905D-08  0.42622914D-06  0.72296529D-06
  0.82307043D-06  0.15331071D-04  0.23928971D-06  0.44076768D-06  0.70866385D-06
  0.91455110D-06  0.77625819D-06  0.26754627D-06 -0.27578720D-06 -0.98318395D-07
  0.34629522D-06 -0.31082391D-06 -0.22875384D-06 -0.12364944D-06 -0.47983756D-05
 -0.35314106D-05 -0.19088508D-05  0.12042661D-07  0.88629120D-08  0.47907136D-08
 -0.10777894D-04  0.16580491D-05  0.48945682D-05 -0.22667602D-08  0.74294501D-05
  0.12443821D-05 -0.64824825D-06 -0.70621061D-05  0.29276096D-07 -0.59679300D-08
  0.13193029D-06  0.22377874D-06  0.25476419D-06 -0.14356910D-05 -0.47987135D-06
 -0.88391506D-06 -0.14211538D-05 -0.18340398D-05 -0.15567074D-05 -0.53653701D-06
  0.15139569D-05  0.53972704D-06 -0.19010166D-05 -0.46606298D-05 -0.34300352D-05
 -0.18540539D-05  0.11819183D-05  0.86984412D-06  0.47018114D-06  0.82470368D-08
  0.60694858D-08  0.32807692D-08 -0.21037286D-05 -0.28231915D-06  0.14652026D-05
  0.36872403D-08 -0.33347206D-05 -0.84375339D-06 -0.57747883D-06  0.40323911D-06
  0.18014985D-07 -0.68388335D-08  0.13035327D-06  0.22110381D-06  0.25171888D-06
 -0.11960189D-05  0.70039213D-07  0.12901107D-06  0.20742329D-06  0.26768572D-06
  0.22720790D-06  0.78309802D-07 -0.33456573D-06 -0.11927300D-06  0.42010113D-06
 -0.20777808D-06 -0.15291627D-06 -0.82656587D-07  0.54325491D-06  0.39981366D-06
  0.21611325D-06 -0.29160219D-09 -0.21460743D-09 -0.11600282D-09 -0.29601002D-06
 -0.15469343D-06  0.21304840D-07  0.36207004D-09 -0.33693155D-07 -0.49634899D-06
 -0.24233932D-08  0.54369778D-06 -0.13171579D-08  0.21077000D-08 -0.28003800D-08
 -0.47499745D-08 -0.54076781D-08 -0.50057077D-07  0.11378674D-05  0.20959329D-05
  0.33698293D-05  0.43488618D-05  0.36912531D-05  0.12722326D-05 -0.29818565D-05
 -0.10630346D-05  0.37442007D-05  0.58687123D-05  0.43191351D-05  0.23346434D-05
  0.11546120D-05  0.84974776D-06  0.45931836D-06 -0.95471266D-08 -0.70262994D-08
 -0.37979604D-08 -0.80618219D-05 -0.46806141D-05  0.66890030D-05 -0.64385022D-09
  0.89150950D-05  0.69498182D-05  0.85199748D-06 -0.70459068D-05 -0.25926834D-07
  0.17101231D-08  0.32891453D-05  0.60585511D-05  0.97409051D-05  0.12570918D-04
  0.10670020D-04  0.36775445D-05 -0.55512420D-04 -0.19790229D-04  0.69704778D-04
  0.26943866D-03  0.19829597D-03  0.10718590D-03 -0.14780610D-03 -0.10877932D-03
 -0.58799021D-04  0.90922159D-07  0.66915035D-07  0.36169915D-07 -0.70783017D-04
 -0.63081254D-04  0.19923141D-04 -0.34565254D-07  0.16777314D-03  0.57032175D-04
 -0.39024285D-04 -0.17975350D-03  0.21563811D-06 -0.45874478D-07  0.27590685D-05
  0.50821585D-05  0.81710664D-05  0.10544996D-04  0.89504456D-05  0.30848735D-05
 -0.49850300D-04 -0.17771678D-04  0.62595075D-04 -0.30582645D-03 -0.22507591D-03
 -0.12166139D-03 -0.14080112D-03 -0.10362393D-03 -0.56012357D-04 -0.13078944D-06
 -0.96255744D-07 -0.52029593D-07 -0.80572731D-04  0.22935506D-04  0.22985813D-04