 Generated by Multiwfn
GAUSSIAN             47 MOL ORBITALS    432 PRIMITIVES       24 NUCLEI
  B    1    (CENTRE  1)   4.73692523  2.77574759  0.00205302  CHARGE =  5.0
  H    2    (CENTRE  2)   4.76909309  5.02437147  0.00275055  CHARGE =  1.0
  B    3    (CENTRE  3)  -0.00017045  2.76581069 -0.00328147  CHARGE =  5.0
  H    4    (CENTRE  4)   0.00017174  5.01255208 -0.00456310  CHARGE =  1.0
  B    5    (CENTRE  5)  -4.73742408  2.77561251 -0.00105751  CHARGE =  5.0
  H    6    (CENTRE  6)  -4.76975089  5.02423938 -0.00131183  CHARGE =  1.0
  B    7    (CENTRE  7)  -7.12388194 -1.32803223  0.00432364  CHARGE =  5.0
  H    8    (CENTRE  8)  -9.07901919 -2.44583268  0.00829516  CHARGE =  1.0
  B    9    (CENTRE  9)  -2.37600494 -1.33904556 -0.00257796  CHARGE =  5.0
  B   10    (CENTRE 10)   2.37634615 -1.33929281 -0.00086068  CHARGE =  5.0
  B   11    (CENTRE 11)   7.12407178 -1.32759230  0.00123104  CHARGE =  5.0
  H   12    (CENTRE 12)   9.07926691 -2.44532992  0.00085166  CHARGE =  1.0
  N   13    (CENTRE 13)   7.03768996  1.37426247  0.00319931  CHARGE =  7.0
  H   14    (CENTRE 14)   8.67713875  2.33800417  0.00577863  CHARGE =  1.0
  N   15    (CENTRE 15)   2.36729283  1.41766773 -0.00071692  CHARGE =  7.0
  N   16    (CENTRE 16)  -2.36755582  1.41791679 -0.00418918  CHARGE =  7.0
  N   17    (CENTRE 17)  -7.03798024  1.37395005  0.00234250  CHARGE =  7.0
  H   18    (CENTRE 18)  -8.67753294  2.33750766  0.00552558  CHARGE =  1.0
  N   19    (CENTRE 19)  -4.76863245 -2.62852243  0.00095354  CHARGE =  7.0
  H   20    (CENTRE 20)  -4.79875115 -4.53113613  0.00249234  CHARGE =  1.0
  N   21    (CENTRE 21)   0.00026896 -2.63530872 -0.00428104  CHARGE =  7.0
  H   22    (CENTRE 22)   0.00054430 -4.53980871 -0.00141083  CHARGE =  1.0
  N   23    (CENTRE 23)   4.76889167 -2.62847452  0.00012580  CHARGE =  7.0
  H   24    (CENTRE 24)   4.79970626 -4.53104631  0.00040370  CHARGE =  1.0
CENTRE ASSIGNMENTS    1  1  1  1  1  1  1  1  1  1  1  1  1  1  1  1  1  1  1  1
CENTRE ASSIGNMENTS    1  1  1  1  1  1  1  1  2  2  2  2  3  3  3  3  3  3  3  3
CENTRE ASSIGNMENTS    3  3  3  3  3  3  3  3  3  3  3  3  3  3  3  3  3  3  3  3
CENTRE ASSIGNMENTS    4  4  4  4  5  5  5  5  5  5  5  5  5  5  5  5  5  5  5  5
CENTRE ASSIGNMENTS    5  5  5  5  5  5  5  5  5  5  5  5  6  6  6  6  7  7  7  7
CENTRE ASSIGNMENTS    7  7  7  7  7  7  7  7  7  7  7  7  7  7  7  7  7  7  7  7
CENTRE ASSIGNMENTS    7  7  7  7  8  8  8  8  9  9  9  9  9  9  9  9  9  9  9  9
CENTRE ASSIGNMENTS    9  9  9  9  9  9  9  9  9  9  9  9  9  9  9  9 10 10 10 10
CENTRE ASSIGNMENTS   10 10 10 10 10 10 10 10 10 10 10 10 10 10 10 10 10 10 10 10
CENTRE ASSIGNMENTS   10 10 10 10 11 11 11 11 11 11 11 11 11 11 11 11 11 11 11 11
CENTRE ASSIGNMENTS   11 11 11 11 11 11 11 11 11 11 11 11 12 12 12 12 13 13 13 13
CENTRE ASSIGNMENTS   13 13 13 13 13 13 13 13 13 13 13 13 13 13 13 13 13 13 13 13
CENTRE ASSIGNMENTS   13 13 13 13 14 14 14 14 15 15 15 15 15 15 15 15 15 15 15 15
CENTRE ASSIGNMENTS   15 15 15 15 15 15 15 15 15 15 15 15 15 15 15 15 16 16 16 16
CENTRE ASSIGNMENTS   16 16 16 16 16 16 16 16 16 16 16 16 16 16 16 16 16 16 16 16
CENTRE ASSIGNMENTS   16 16 16 16 17 17 17 17 17 17 17 17 17 17 17 17 17 17 17 17
CENTRE ASSIGNMENTS   17 17 17 17 17 17 17 17 17 17 17 17 18 18 18 18 19 19 19 19
CENTRE ASSIGNMENTS   19 19 19 19 19 19 19 19 19 19 19 19 19 19 19 19 19 19 19 19
CENTRE ASSIGNMENTS   19 19 19 19 20 20 20 20 21 21 21 21 21 21 21 21 21 21 21 21
CENTRE ASSIGNMENTS   21 21 21 21 21 21 21 21 21 21 21 21 21 21 21 21 22 22 22 22
CENTRE ASSIGNMENTS   23 23 23 23 23 23 23 23 23 23 23 23 23 23 23 23 23 23 23 23
CENTRE ASSIGNMENTS   23 23 23 23 23 23 23 23 24 24 24 24
TYPE ASSIGNMENTS      1  1  1  1  1  1  1  1  1  2  2  2  3  3  3  4  4  4  1  2
TYPE ASSIGNMENTS      3  4  5  6  7  8  9 10  1  1  1  1  1  1  1  1  1  1  1  1
TYPE ASSIGNMENTS      1  2  2  2  3  3  3  4  4  4  1  2  3  4  5  6  7  8  9 10
TYPE ASSIGNMENTS      1  1  1  1  1  1  1  1  1  1  1  1  1  2  2  2  3  3  3  4
TYPE ASSIGNMENTS      4  4  1  2  3  4  5  6  7  8  9 10  1  1  1  1  1  1  1  1
TYPE ASSIGNMENTS      1  1  1  1  1  2  2  2  3  3  3  4  4  4  1  2  3  4  5  6
TYPE ASSIGNMENTS      7  8  9 10  1  1  1  1  1  1  1  1  1  1  1  1  1  2  2  2
TYPE ASSIGNMENTS      3  3  3  4  4  4  1  2  3  4  5  6  7  8  9 10  1  1  1  1
TYPE ASSIGNMENTS      1  1  1  1  1  2  2  2  3  3  3  4  4  4  1  2  3  4  5  6
TYPE ASSIGNMENTS      7  8  9 10  1  1  1  1  1  1  1  1  1  2  2  2  3  3  3  4
TYPE ASSIGNMENTS      4  4  1  2  3  4  5  6  7  8  9 10  1  1  1  1  1  1  1  1
TYPE ASSIGNMENTS      1  1  1  1  1  2  2  2  3  3  3  4  4  4  1  2  3  4  5  6
TYPE ASSIGNMENTS      7  8  9 10  1  1  1  1  1  1  1  1  1  1  1  1  1  2  2  2
TYPE ASSIGNMENTS      3  3  3  4  4  4  1  2  3  4  5  6  7  8  9 10  1  1  1  1
TYPE ASSIGNMENTS      1  1  1  1  1  2  2  2  3  3  3  4  4  4  1  2  3  4  5  6
TYPE ASSIGNMENTS      7  8  9 10  1  1  1  1  1  1  1  1  1  2  2  2  3  3  3  4
TYPE ASSIGNMENTS      4  4  1  2  3  4  5  6  7  8  9 10  1  1  1  1  1  1  1  1
TYPE ASSIGNMENTS      1  1  1  1  1  2  2  2  3  3  3  4  4  4  1  2  3  4  5  6
TYPE ASSIGNMENTS      7  8  9 10  1  1  1  1  1  1  1  1  1  1  1  1  1  2  2  2
TYPE ASSIGNMENTS      3  3  3  4  4  4  1  2  3  4  5  6  7  8  9 10  1  1  1  1
TYPE ASSIGNMENTS      1  1  1  1  1  1  1  1  1  2  2  2  3  3  3  4  4  4  1  2
TYPE ASSIGNMENTS      3  4  5  6  7  8  9 10  1  1  1  1
EXPONENTS  0.2068882D+04 0.3106496D+03 0.7068303D+02 0.1986108D+02 0.6299305D+01
EXPONENTS  0.2127027D+01 0.4727971D+01 0.1190338D+01 0.3594117D+00 0.4727971D+01
EXPONENTS  0.1190338D+01 0.3594117D+00 0.4727971D+01 0.1190338D+01 0.3594117D+00
EXPONENTS  0.4727971D+01 0.1190338D+01 0.3594117D+00 0.1267512D+00 0.1267512D+00
EXPONENTS  0.1267512D+00 0.1267512D+00 0.6000000D+00 0.6000000D+00 0.6000000D+00
EXPONENTS  0.6000000D+00 0.6000000D+00 0.6000000D+00 0.1873114D+02 0.2825394D+01
EXPONENTS  0.6401217D+00 0.1612778D+00 0.2068882D+04 0.3106496D+03 0.7068303D+02
EXPONENTS  0.1986108D+02 0.6299305D+01 0.2127027D+01 0.4727971D+01 0.1190338D+01
EXPONENTS  0.3594117D+00 0.4727971D+01 0.1190338D+01 0.3594117D+00 0.4727971D+01
EXPONENTS  0.1190338D+01 0.3594117D+00 0.4727971D+01 0.1190338D+01 0.3594117D+00
EXPONENTS  0.1267512D+00 0.1267512D+00 0.1267512D+00 0.1267512D+00 0.6000000D+00
EXPONENTS  0.6000000D+00 0.6000000D+00 0.6000000D+00 0.6000000D+00 0.6000000D+00
EXPONENTS  0.1873114D+02 0.2825394D+01 0.6401217D+00 0.1612778D+00 0.2068882D+04
EXPONENTS  0.3106496D+03 0.7068303D+02 0.1986108D+02 0.6299305D+01 0.2127027D+01
EXPONENTS  0.4727971D+01 0.1190338D+01 0.3594117D+00 0.4727971D+01 0.1190338D+01
EXPONENTS  0.3594117D+00 0.4727971D+01 0.1190338D+01 0.3594117D+00 0.4727971D+01
EXPONENTS  0.1190338D+01 0.3594117D+00 0.1267512D+00 0.1267512D+00 0.1267512D+00
EXPONENTS  0.1267512D+00 0.6000000D+00 0.6000000D+00 0.6000000D+00 0.6000000D+00
EXPONENTS  0.6000000D+00 0.6000000D+00 0.1873114D+02 0.2825394D+01 0.6401217D+00
EXPONENTS  0.1612778D+00 0.2068882D+04 0.3106496D+03 0.7068303D+02 0.1986108D+02
EXPONENTS  0.6299305D+01 0.2127027D+01 0.4727971D+01 0.1190338D+01 0.3594117D+00
EXPONENTS  0.4727971D+01 0.1190338D+01 0.3594117D+00 0.4727971D+01 0.1190338D+01
EXPONENTS  0.3594117D+00 0.4727971D+01 0.1190338D+01 0.3594117D+00 0.1267512D+00
EXPONENTS  0.1267512D+00 0.1267512D+00 0.1267512D+00 0.6000000D+00 0.6000000D+00
EXPONENTS  0.6000000D+00 0.6000000D+00 0.6000000D+00 0.6000000D+00 0.1873114D+02
EXPONENTS  0.2825394D+01 0.6401217D+00 0.1612778D+00 0.2068882D+04 0.3106496D+03
EXPONENTS  0.7068303D+02 0.1986108D+02 0.6299305D+01 0.2127027D+01 0.4727971D+01
EXPONENTS  0.1190338D+01 0.3594117D+00 0.4727971D+01 0.1190338D+01 0.3594117D+00
EXPONENTS  0.4727971D+01 0.1190338D+01 0.3594117D+00 0.4727971D+01 0.1190338D+01
EXPONENTS  0.3594117D+00 0.1267512D+00 0.1267512D+00 0.1267512D+00 0.1267512D+00
EXPONENTS  0.6000000D+00 0.6000000D+00 0.6000000D+00 0.6000000D+00 0.6000000D+00
EXPONENTS  0.6000000D+00 0.2068882D+04 0.3106496D+03 0.7068303D+02 0.1986108D+02
EXPONENTS  0.6299305D+01 0.2127027D+01 0.4727971D+01 0.1190338D+01 0.3594117D+00
EXPONENTS  0.4727971D+01 0.1190338D+01 0.3594117D+00 0.4727971D+01 0.1190338D+01
EXPONENTS  0.3594117D+00 0.4727971D+01 0.1190338D+01 0.3594117D+00 0.1267512D+00
EXPONENTS  0.1267512D+00 0.1267512D+00 0.1267512D+00 0.6000000D+00 0.6000000D+00
EXPONENTS  0.6000000D+00 0.6000000D+00 0.6000000D+00 0.6000000D+00 0.2068882D+04
EXPONENTS  0.3106496D+03 0.7068303D+02 0.1986108D+02 0.6299305D+01 0.2127027D+01
EXPONENTS  0.4727971D+01 0.1190338D+01 0.3594117D+00 0.4727971D+01 0.1190338D+01
EXPONENTS  0.3594117D+00 0.4727971D+01 0.1190338D+01 0.3594117D+00 0.4727971D+01
EXPONENTS  0.1190338D+01 0.3594117D+00 0.1267512D+00 0.1267512D+00 0.1267512D+00
EXPONENTS  0.1267512D+00 0.6000000D+00 0.6000000D+00 0.6000000D+00 0.6000000D+00
EXPONENTS  0.6000000D+00 0.6000000D+00 0.1873114D+02 0.2825394D+01 0.6401217D+00
EXPONENTS  0.1612778D+00 0.4173511D+04 0.6274579D+03 0.1429021D+03 0.4023433D+02
EXPONENTS  0.1282021D+02 0.4390437D+01 0.1162636D+02 0.2716280D+01 0.7722184D+00
EXPONENTS  0.1162636D+02 0.2716280D+01 0.7722184D+00 0.1162636D+02 0.2716280D+01
EXPONENTS  0.7722184D+00 0.1162636D+02 0.2716280D+01 0.7722184D+00 0.2120315D+00
EXPONENTS  0.2120315D+00 0.2120315D+00 0.2120315D+00 0.8000000D+00 0.8000000D+00
EXPONENTS  0.8000000D+00 0.8000000D+00 0.8000000D+00 0.8000000D+00 0.1873114D+02
EXPONENTS  0.2825394D+01 0.6401217D+00 0.1612778D+00 0.4173511D+04 0.6274579D+03
EXPONENTS  0.1429021D+03 0.4023433D+02 0.1282021D+02 0.4390437D+01 0.1162636D+02
EXPONENTS  0.2716280D+01 0.7722184D+00 0.1162636D+02 0.2716280D+01 0.7722184D+00
EXPONENTS  0.1162636D+02 0.2716280D+01 0.7722184D+00 0.1162636D+02 0.2716280D+01
EXPONENTS  0.7722184D+00 0.2120315D+00 0.2120315D+00 0.2120315D+00 0.2120315D+00
EXPONENTS  0.8000000D+00 0.8000000D+00 0.8000000D+00 0.8000000D+00 0.8000000D+00
EXPONENTS  0.8000000D+00 0.4173511D+04 0.6274579D+03 0.1429021D+03 0.4023433D+02
EXPONENTS  0.1282021D+02 0.4390437D+01 0.1162636D+02 0.2716280D+01 0.7722184D+00
EXPONENTS  0.1162636D+02 0.2716280D+01 0.7722184D+00 0.1162636D+02 0.2716280D+01
EXPONENTS  0.7722184D+00 0.1162636D+02 0.2716280D+01 0.7722184D+00 0.2120315D+00
EXPONENTS  0.2120315D+00 0.2120315D+00 0.2120315D+00 0.8000000D+00 0.8000000D+00
EXPONENTS  0.8000000D+00 0.8000000D+00 0.8000000D+00 0.8000000D+00 0.4173511D+04
EXPONENTS  0.6274579D+03 0.1429021D+03 0.4023433D+02 0.1282021D+02 0.4390437D+01
EXPONENTS  0.1162636D+02 0.2716280D+01 0.7722184D+00 0.1162636D+02 0.2716280D+01
EXPONENTS  0.7722184D+00 0.1162636D+02 0.2716280D+01 0.7722184D+00 0.1162636D+02
EXPONENTS  0.2716280D+01 0.7722184D+00 0.2120315D+00 0.2120315D+00 0.2120315D+00
EXPONENTS  0.2120315D+00 0.8000000D+00 0.8000000D+00 0.8000000D+00 0.8000000D+00
EXPONENTS  0.8000000D+00 0.8000000D+00 0.1873114D+02 0.2825394D+01 0.6401217D+00
EXPONENTS  0.1612778D+00 0.4173511D+04 0.6274579D+03 0.1429021D+03 0.4023433D+02
EXPONENTS  0.1282021D+02 0.4390437D+01 0.1162636D+02 0.2716280D+01 0.7722184D+00
EXPONENTS  0.1162636D+02 0.2716280D+01 0.7722184D+00 0.1162636D+02 0.2716280D+01
EXPONENTS  0.7722184D+00 0.1162636D+02 0.2716280D+01 0.7722184D+00 0.2120315D+00
EXPONENTS  0.2120315D+00 0.2120315D+00 0.2120315D+00 0.8000000D+00 0.8000000D+00
EXPONENTS  0.8000000D+00 0.8000000D+00 0.8000000D+00 0.8000000D+00 0.1873114D+02
EXPONENTS  0.2825394D+01 0.6401217D+00 0.1612778D+00 0.4173511D+04 0.6274579D+03
EXPONENTS  0.1429021D+03 0.4023433D+02 0.1282021D+02 0.4390437D+01 0.1162636D+02
EXPONENTS  0.2716280D+01 0.7722184D+00 0.1162636D+02 0.2716280D+01 0.7722184D+00
EXPONENTS  0.1162636D+02 0.2716280D+01 0.7722184D+00 0.1162636D+02 0.2716280D+01
EXPONENTS  0.7722184D+00 0.2120315D+00 0.2120315D+00 0.2120315D+00 0.2120315D+00
EXPONENTS  0.8000000D+00 0.8000000D+00 0.8000000D+00 0.8000000D+00 0.8000000D+00
EXPONENTS  0.8000000D+00 0.1873114D+02 0.2825394D+01 0.6401217D+00 0.1612778D+00
EXPONENTS  0.4173511D+04 0.6274579D+03 0.1429021D+03 0.4023433D+02 0.1282021D+02
EXPONENTS  0.4390437D+01 0.1162636D+02 0.2716280D+01 0.7722184D+00 0.1162636D+02
EXPONENTS  0.2716280D+01 0.7722184D+00 0.1162636D+02 0.2716280D+01 0.7722184D+00
EXPONENTS  0.1162636D+02 0.2716280D+01 0.7722184D+00 0.2120315D+00 0.2120315D+00
EXPONENTS  0.2120315D+00 0.2120315D+00 0.8000000D+00 0.8000000D+00 0.8000000D+00
EXPONENTS  0.8000000D+00 0.8000000D+00 0.8000000D+00 0.1873114D+02 0.2825394D+01
EXPONENTS  0.6401217D+00 0.1612778D+00
MO    1     MO 0.0        OCC NO =    2.0000000  ORB. ENERGY =  -14.315388
 -0.52633486D-06 -0.96950009D-06 -0.15587569D-05 -0.20116207D-05 -0.17074355D-05
 -0.58848718D-06  0.16599243D-05  0.59176455D-06 -0.20843021D-05  0.51307052D-05
  0.37759917D-05  0.20410554D-05  0.15290385D-05  0.11253105D-05  0.60826966D-06
  0.21718231D-07  0.15983741D-07  0.86397704D-08 -0.23011684D-05  0.42597431D-06
  0.13778177D-05 -0.14015948D-08 -0.34639410D-05 -0.97192245D-06 -0.62166094D-06
 -0.86319323D-06 -0.16420724D-07 -0.43161523D-08  0.15017693D-06  0.25472850D-06
  0.28999939D-06 -0.10851928D-05 -0.99781704D-07 -0.18379624D-06 -0.29550659D-06
 -0.38135976D-06 -0.32369284D-06 -0.11156444D-06  0.90383444D-06  0.32221782D-06
 -0.11349096D-05  0.33551289D-05  0.24692393D-05  0.13347101D-05 -0.27187613D-05
 -0.20008985D-05 -0.10815555D-05 -0.29730712D-08 -0.21880603D-08 -0.11827230D-08
 -0.95491454D-05 -0.74668336D-06  0.27976301D-05  0.11581626D-07  0.61850893D-05
  0.82161489D-06 -0.14414812D-05  0.53679334D-05  0.11227840D-07 -0.22363763D-07
  0.13188056D-06  0.22369439D-06  0.25466816D-06  0.33719638D-06  0.13836165D-05
  0.25485986D-05  0.40976228D-05  0.52881002D-05  0.44884655D-05  0.15470010D-05
 -0.70894008D-05 -0.25273780D-05  0.89018837D-05 -0.11592057D-05 -0.85312855D-06
 -0.46114579D-06 -0.22527674D-04 -0.16579458D-04 -0.89617761D-05  0.10133217D-07
  0.74576386D-08  0.40311143D-08  0.18515365D-04 -0.21047164D-05 -0.17823281D-04
  0.61206349D-08  0.16079830D-05  0.29333199D-05  0.20403205D-05  0.37412558D-06
  0.39159166D-08  0.65908008D-08  0.35746380D-06  0.60632626D-06  0.69028101D-06
  0.12800597D-04  0.24528497D-05  0.45181084D-05  0.72641897D-05  0.93746460D-05
  0.79570685D-05  0.27424947D-05 -0.48641217D-04 -0.17340639D-04  0.61076877D-04
  0.28733916D-03  0.21147001D-03  0.11430693D-03 -0.13342363D-03 -0.98194404D-04
 -0.53077506D-04 -0.43848077D-06 -0.32270413D-06 -0.17443286D-06 -0.75553059D-04
 -0.21393026D-04  0.20648070D-04  0.38853105D-07  0.14945284D-03  0.41096439D-04
 -0.38749827D-04 -0.20719405D-03 -0.53650430D-06  0.27654760D-06  0.29044073D-05
  0.49264244D-05  0.56085601D-05  0.11023060D-04  0.30291320D-05  0.55796108D-05
  0.89708675D-05  0.11577163D-04  0.98265340D-05  0.33868274D-05 -0.50755657D-04
 -0.18094439D-04  0.63731896D-04 -0.25724496D-03 -0.18932190D-03 -0.10233510D-03
 -0.14121034D-03 -0.10392510D-03 -0.56175148D-04  0.36366533D-06  0.26764299D-06
  0.14467039D-06 -0.68736964D-04  0.54396019D-04  0.17113690D-04 -0.54273139D-07
  0.16152571D-03  0.53403889D-04 -0.35438916D-04  0.17651153D-03 -0.54800628D-06
 -0.30273526D-06  0.70836039D-06  0.13047881D-05  0.20978311D-05  0.27073114D-05
  0.22979281D-05  0.79200721D-06 -0.15327936D-05 -0.54644235D-06  0.19246691D-05
 -0.26595671D-05 -0.19573339D-05 -0.10580074D-05  0.30228572D-05  0.22247008D-05
  0.12025285D-05 -0.27623459D-07 -0.20329750D-07 -0.10988940D-07 -0.69814735D-05
  0.18672118D-05  0.64790992D-05  0.21475519D-07  0.68668658D-05  0.57489855D-05
  0.33443487D-07  0.53798463D-05  0.31437148D-07  0.25317591D-07 -0.43554701D-07
 -0.80227036D-07 -0.12898859D-06 -0.16646348D-06 -0.14129188D-06 -0.48697863D-07
  0.57751994D-07  0.20588640D-07 -0.72516924D-07  0.60061406D-06  0.44202768D-06
  0.23893141D-06  0.46826992D-06  0.34462774D-06  0.18628334D-06  0.72950716D-08
  0.53688779D-08  0.29020661D-08  0.39484101D-06 -0.33968648D-06  0.26589605D-06
 -0.63731928D-09 -0.19710875D-06 -0.44775512D-06 -0.36943270D-06 -0.32975168D-06
 -0.46715145D-08 -0.75419884D-08 -0.68402334D-08 -0.11602331D-07 -0.13208843D-07
  0.36007930D-06 -0.25286740D-05 -0.46567645D-05 -0.75240628D-05 -0.98473808D-05
 -0.84351642D-05 -0.29017942D-05  0.16918068D-07  0.83634613D-08 -0.22062275D-07
 -0.17114932D-05 -0.13324248D-05 -0.63268241D-06 -0.15080222D-06 -0.11740194D-06
 -0.55746592D-07 -0.47468244D-08 -0.36954786D-08 -0.17547440D-08  0.31996068D-06
  0.28259292D-06  0.59393183D-06  0.24555600D-08  0.66648054D-06  0.63338146D-06
  0.47372964D-06 -0.13791505D-05 -0.92891454D-09 -0.40567106D-09 -0.11160723D-06
 -0.18930698D-06 -0.21551931D-06 -0.37544071D-06  0.30980156D-05  0.57052546D-05
  0.92181372D-05  0.12064560D-04  0.10334377D-04  0.35551454D-05 -0.42300845D-05
 -0.20911458D-05  0.55163087D-05 -0.75243537D-05 -0.58578295D-05 -0.27815047D-05
 -0.72951029D-05 -0.56793541D-05 -0.26967582D-05  0.26914301D-07  0.20953213D-07
  0.99493268D-08 -0.79275113D-05  0.66785310D-05  0.91034860D-05 -0.16162315D-07
  0.51165219D-05 -0.59830768D-06  0.80889284D-05  0.43720090D-05  0.39062109D-08
  0.18839099D-07 -0.34252707D-04 -0.63079222D-04 -0.10191884D-03 -0.13338985D-03
 -0.11426036D-03 -0.39306888D-04 -0.30409175D-04 -0.15032801D-04  0.39655566D-04
 -0.19296873D-04 -0.15022924D-04 -0.71334157D-05 -0.16201288D-04 -0.12612961D-04
 -0.59890801D-05  0.31061125D-07  0.24181582D-07  0.11482270D-07 -0.34909060D-04
  0.12675260D-04  0.19389033D-04 -0.36270017D-07 -0.13202197D-04 -0.37315521D-04
  0.37364574D-04 -0.34238340D-04  0.14877350D-06  0.13266451D-06 -0.29295076D-03
 -0.53949331D-03 -0.87167421D-03 -0.11408342D-02 -0.97722669D-03 -0.33617730D-03
 -0.25137604D-04 -0.12426796D-04  0.32781090D-04  0.13871896D-04  0.10799493D-04
  0.51279811D-05 -0.60732903D-05 -0.47281535D-05 -0.22450945D-05 -0.17938073D-07
 -0.13965077D-07 -0.66311123D-08 -0.36703140D-04 -0.24539534D-04  0.17862199D-04
  0.22707612D-07 -0.11963874D-04 -0.34592637D-04  0.38424941D-04  0.40716737D-04
  0.14002351D-06  0.37783944D-07  0.34305753D-06  0.58189050D-06  0.66246177D-06
 -0.14330758D-04  0.67395081D+00  0.12411367D+01  0.20053388D+01  0.26245574D+01
  0.22481687D+01  0.77339607D+00 -0.17979970D-01 -0.88884134D-02  0.23447065D-01
  0.45714179D-04  0.35589218D-04  0.16899020D-04 -0.91504103D-03 -0.71237405D-03
 -0.33826040D-03  0.12817649D-05  0.99787447D-06  0.47382610D-06  0.10250028D-02
  0.66503247D-05  0.30290303D-04 -0.74224849D-07 -0.96808923D-02 -0.94608847D-02
 -0.94604730D-02  0.10446923D-04  0.64065742D-06 -0.12398485D-06  0.59042001D-04
  0.10014641D-03  0.11401315D-03 -0.67661282D-04 -0.15613067D-02 -0.28752768D-02
 -0.46456640D-02 -0.60801755D-02 -0.52082153D-02 -0.17916864D-02  0.98500002D-05
  0.48693559D-05 -0.12845049D-04 -0.22274790D-04 -0.17341280D-04 -0.82342531D-05
 -0.52159460D-05 -0.40606973D-05 -0.19281627D-05  0.14980187D-08  0.11662315D-08
  0.55376797D-09 -0.48404488D-04  0.24885465D-04 -0.84774947D-05 -0.26224815D-07
 -0.16755364D-04  0.20239426D-04  0.63063561D-04  0.11174204D-04  0.16770453D-06
  0.51027156D-07  0.28524908D-05  0.48383643D-05  0.55083068D-05  0.64301619D-05
  0.29289585D-03  0.53939217D-03  0.87151080D-03  0.11406203D-02  0.97704350D-03
  0.33611428D-03 -0.68119180D-05 -0.33674774D-05  0.88831895D-05 -0.51962024D-06
 -0.40453265D-06 -0.19208641D-06 -0.30966435D-06 -0.24107864D-06 -0.11447267D-06
  0.22763961D-07  0.17722107D-07  0.84150833D-08  0.59654769D-05 -0.99190977D-06
 -0.14148688D-05 -0.13173729D-07 -0.64643715D-05 -0.76966063D-05 -0.44313929D-05
  0.28206515D-05  0.43228985D-08 -0.16182968D-07  0.13308543D-06  0.22573808D-06
  0.25699483D-06 -0.72208505D-06
MO    2     MO 0.0        OCC NO =    2.0000000  ORB. ENERGY =  -14.315376
  0.13841944D-05  0.25496631D-05  0.40993342D-05  0.52903088D-05  0.44903402D-05
  0.15476471D-05 -0.70863389D-05 -0.25262864D-05  0.88980390D-05  0.11596104D-05
  0.85342638D-06  0.46130678D-06 -0.22534202D-04 -0.16584262D-04 -0.89643733D-05
 -0.80053656D-08 -0.58916256D-08 -0.31846295D-08  0.18520781D-04  0.21030444D-05
 -0.17830451D-04 -0.31269635D-08  0.16143872D-05  0.29472030D-05  0.20423871D-05
 -0.37435226D-06  0.31538457D-08  0.31848244D-08  0.35636486D-06  0.60446225D-06
  0.68815891D-06  0.12807794D-04 -0.10015652D-06 -0.18448665D-06 -0.29661662D-06
 -0.38279228D-06 -0.32490874D-06 -0.11198352D-06  0.90400224D-06  0.32227764D-06
 -0.11351203D-05 -0.33576497D-05 -0.24710945D-05 -0.13357129D-05 -0.27075487D-05
 -0.19926464D-05 -0.10770950D-05  0.76199038D-08  0.56079413D-08  0.30312882D-08
 -0.95507653D-05  0.74329928D-06  0.28071551D-05 -0.23716884D-08  0.61763820D-05
  0.81256272D-06 -0.14390213D-05 -0.53669646D-05  0.26481482D-07 -0.34436514D-08
  0.13245380D-06  0.22466672D-06  0.25577512D-06  0.32739045D-06 -0.52648574D-06
 -0.96977800D-06 -0.15592037D-05 -0.20121973D-05 -0.17079249D-05 -0.58865587D-06
  0.16619178D-05  0.59247525D-06 -0.20868053D-05 -0.51250572D-05 -0.37718350D-05
 -0.20388086D-05  0.15462357D-05  0.11379670D-05  0.61511094D-06  0.98569215D-08
  0.72542959D-08  0.39212004D-08 -0.23149248D-05 -0.42669652D-06  0.13894572D-05
  0.35653190D-08 -0.34631010D-05 -0.97300716D-06 -0.62234730D-06  0.86113084D-06
  0.18398382D-07 -0.69698081D-08  0.15004948D-06  0.25451232D-06  0.28975328D-06
 -0.10939579D-05 -0.44917894D-07 -0.82738016D-07 -0.13302573D-06 -0.17167353D-06
 -0.14571409D-06 -0.50222029D-07  0.96808996D-07  0.34512497D-07 -0.12155928D-06
 -0.84985534D-06 -0.62545919D-06 -0.33808255D-06  0.58563795D-06  0.43100587D-06
  0.23297373D-06  0.19377574D-08  0.14261111D-08  0.77086290D-09  0.45481684D-06
  0.35410741D-06  0.24473389D-06 -0.59938494D-09 -0.32850797D-06 -0.48469036D-06
 -0.33304082D-06  0.51325753D-06 -0.37153289D-09  0.71057678D-09 -0.93174501D-08
 -0.15804159D-07 -0.17992476D-07  0.34642634D-06  0.70450250D-06  0.12976819D-05
  0.20864058D-05  0.26925668D-05  0.22854131D-05  0.78769376D-06 -0.14820778D-05
 -0.52836213D-06  0.18609873D-05  0.28636912D-05  0.21075610D-05  0.11392104D-05
  0.31508992D-05  0.23189345D-05  0.12534651D-05 -0.85074763D-08 -0.62611588D-08
 -0.33843751D-08 -0.69340468D-05 -0.19324452D-05  0.64614377D-05 -0.82231990D-09
  0.67100784D-05  0.56978345D-05  0.66270969D-07 -0.55397306D-05 -0.18482642D-07
  0.12656482D-08  0.30408571D-05  0.56012083D-05  0.90055919D-05  0.11621976D-04
  0.98645706D-05  0.33999371D-05 -0.50806397D-04 -0.18112528D-04  0.63795609D-04
  0.25730028D-03  0.18936261D-03  0.10235711D-03 -0.14121465D-03 -0.10392827D-03
 -0.56176864D-04  0.88037764D-07  0.64792237D-07  0.35022468D-07 -0.68751157D-04
 -0.54434811D-04  0.17113008D-04 -0.29006118D-07  0.16147250D-03  0.53370901D-04
 -0.35453607D-04 -0.17643813D-03  0.20097602D-06 -0.42170972D-07  0.24452213D-05
  0.45040571D-05  0.72415982D-05  0.93454909D-05  0.79323221D-05  0.27339656D-05
 -0.48611839D-04 -0.17330166D-04  0.61039987D-04 -0.28730952D-03 -0.21144820D-03
 -0.11429514D-03 -0.13345411D-03 -0.98216830D-04 -0.53089629D-04 -0.11872312D-06
 -0.87375417D-07 -0.47229466D-07 -0.75517571D-04  0.21371738D-04  0.20650507D-04
  0.21800768D-07  0.14947219D-03  0.41138010D-04 -0.38746650D-04  0.20726287D-03
  0.16758823D-06  0.11566514D-06  0.29031292D-05  0.49242565D-05  0.56060920D-05
  0.11033521D-04 -0.29350711D-03 -0.54051787D-03 -0.87332963D-03 -0.11430007D-02
 -0.97908257D-03 -0.33681575D-03 -0.25127502D-04 -0.12421802D-04  0.32767917D-04
 -0.13866779D-04 -0.10795509D-04 -0.51260894D-05 -0.60766692D-05 -0.47307840D-05
 -0.22463436D-05 -0.10910281D-07 -0.84938278D-08 -0.40331699D-08 -0.36719606D-04
  0.24537755D-04  0.17869330D-04  0.25280357D-07 -0.11954514D-04 -0.34587335D-04
  0.38437124D-04 -0.40699036D-04 -0.38860626D-07 -0.94251816D-07  0.34317030D-06
  0.58208179D-06  0.66267954D-06 -0.14326456D-04 -0.34220367D-04 -0.63019665D-04
 -0.10182261D-03 -0.13326391D-03 -0.11415248D-03 -0.39269775D-04 -0.30402902D-04
 -0.15029700D-04  0.39647386D-04  0.19312263D-04  0.15034905D-04  0.71391049D-05
 -0.16179792D-04 -0.12596227D-04 -0.59811339D-05  0.23698995D-07  0.18450046D-07
  0.87607346D-08 -0.34903348D-04 -0.12694101D-04  0.19380936D-04 -0.16275075D-07
 -0.13201582D-04 -0.37320130D-04  0.37350492D-04  0.34247762D-04 -0.51630080D-07
  0.14445247D-07  0.31310729D-05  0.57661323D-05  0.93164990D-05  0.12193294D-04
  0.10444649D-04  0.35930804D-05 -0.41965152D-05 -0.20745508D-05  0.54725321D-05
  0.75315460D-05  0.58634289D-05  0.27841634D-05 -0.72774740D-05 -0.56656297D-05
 -0.26902414D-05  0.16164032D-07  0.12583957D-07  0.59753081D-08 -0.78722812D-05
 -0.66732908D-05  0.90777743D-05 -0.65465047D-08  0.51192282D-05 -0.57262770D-06
  0.80488049D-05 -0.43438758D-05 -0.92158631D-08  0.26359215D-07 -0.22927107D-05
 -0.42222184D-05 -0.68219546D-05 -0.89284720D-05 -0.76480365D-05 -0.26310132D-05
  0.38775079D-07  0.19168493D-07 -0.50565257D-07  0.17008763D-05  0.13241594D-05
  0.62875770D-06 -0.14485836D-06 -0.11277455D-06 -0.53549345D-07  0.21957555D-08
  0.17094307D-08  0.81169816D-09  0.35092304D-06 -0.26344769D-06  0.57549595D-06
 -0.20517780D-08  0.67667015D-06  0.66560482D-06  0.44180513D-06  0.13417313D-05
 -0.26854480D-08 -0.12933922D-08 -0.11189747D-06 -0.18979929D-06 -0.21607978D-06
 -0.36344510D-06 -0.29755632D-03 -0.54797483D-03 -0.88537804D-03 -0.11587695D-02
 -0.99258994D-03 -0.34146244D-03  0.89381098D-05  0.44185621D-05 -0.11655884D-04
  0.48602702D-06  0.37837980D-06  0.17966811D-06  0.49880525D-06  0.38832785D-06
  0.18439180D-06 -0.28882045D-09 -0.22485133D-09 -0.10676737D-09  0.50553495D-05
  0.98468776D-06 -0.14435022D-05 -0.64533087D-09  0.20302766D-05  0.59687911D-06
  0.38603501D-05 -0.28245787D-05  0.49574220D-08  0.54867537D-08  0.81696754D-07
  0.13857316D-06  0.15776064D-06 -0.66504483D-06 -0.15914385D-02 -0.29307670D-02
 -0.47353211D-02 -0.61975174D-02 -0.53087290D-02 -0.18262643D-02  0.10677210D-04
  0.52782876D-05 -0.13923784D-04  0.22268460D-04  0.17336352D-04  0.82319132D-05
 -0.51935260D-05 -0.40432430D-05 -0.19198748D-05 -0.72092980D-08 -0.56125536D-08
 -0.26650390D-08 -0.48415656D-04 -0.24930634D-04 -0.84607379D-05 -0.35637899D-07
 -0.16332267D-04  0.20653810D-04  0.63446907D-04 -0.11188971D-04 -0.16870277D-06
 -0.50758649D-07  0.28530544D-05  0.48393202D-05  0.55093950D-05  0.64286038D-05
  0.67395071D+00  0.12411365D+01  0.20053385D+01  0.26245571D+01  0.22481683D+01
  0.77339595D+00 -0.17980024D-01 -0.88884399D-02  0.23447135D-01 -0.45517358D-04
 -0.35435990D-04 -0.16826262D-04 -0.91505850D-03 -0.71238766D-03 -0.33826686D-03
  0.40445619D-06  0.31487561D-06  0.14951408D-06  0.10250418D-02 -0.66878176D-05
  0.30286306D-04 -0.23287045D-07 -0.96809523D-02 -0.94609579D-02 -0.94605486D-02
 -0.10619767D-04 -0.18373618D-06 -0.27906458D-07  0.59041317D-04  0.10014525D-03
  0.11401182D-03 -0.67664865D-04
MO    3     MO 0.0        OCC NO =    2.0000000  ORB. ENERGY =  -14.314771
 -0.33207454D-06 -0.61167579D-06 -0.98344896D-06 -0.12691692D-05 -0.10772531D-05
 -0.37128760D-06  0.22633258D-05  0.80687774D-06 -0.28419698D-05  0.50769996D-05
  0.37364665D-05  0.20196907D-05 -0.14525698D-05 -0.10690327D-05 -0.57784951D-06
  0.51724776D-07  0.38067345D-07  0.20576730D-07 -0.93314262D-05  0.28654013D-07
  0.23314054D-05 -0.87362833D-08  0.73412671D-05  0.87388502D-06 -0.16941679D-05
  0.39980668D-05 -0.19314136D-07  0.12865712D-07  0.13278733D-06  0.22523245D-06
  0.25641918D-06  0.75964592D-06  0.13595462D-05  0.25042616D-05  0.40263379D-05
  0.51961050D-05  0.44103813D-05  0.15200884D-05 -0.57095126D-05 -0.20354466D-05
  0.71692121D-05 -0.21521876D-08 -0.15839231D-08 -0.85616579D-09 -0.23235472D-04
 -0.17100368D-04 -0.92433466D-05  0.31614362D-07  0.23266893D-07  0.12576569D-07
  0.25403355D-04 -0.13396522D-08 -0.24983167D-04  0.20492014D-07  0.60445901D-05
  0.54051100D-05  0.16144718D-05  0.69731278D-09  0.12486744D-07 -0.40450924D-07
  0.25850743D-06  0.43847752D-06  0.49919116D-06  0.18440801D-04 -0.32927407D-06
 -0.60651737D-06 -0.97515529D-06 -0.12584660D-05 -0.10681683D-05 -0.36815644D-06
  0.22499945D-05  0.80212513D-06 -0.28252302D-05 -0.50802435D-05 -0.37388540D-05
 -0.20209812D-05 -0.14577287D-05 -0.10728294D-05 -0.57990178D-06  0.57046316D-07
  0.41983784D-07  0.22693702D-07 -0.93504055D-05 -0.28635394D-07  0.23480676D-05
 -0.20066673D-08  0.73122547D-05  0.87879478D-06 -0.16840086D-05 -0.39882850D-05
  0.21506164D-07 -0.47883900D-08  0.13159144D-06  0.22320399D-06  0.25410985D-06
  0.74780991D-06  0.47460154D-06  0.87420816D-06  0.14055471D-05  0.18138989D-05
  0.15396121D-05  0.53064492D-06 -0.78795832D-06 -0.28090788D-06  0.98940849D-06
  0.30429555D-05  0.22394923D-05  0.12105238D-05  0.27180034D-05  0.20003407D-05
  0.10812540D-05  0.20137228D-07  0.14820186D-07  0.80108283D-08 -0.45316093D-05
  0.21790687D-05  0.61759892D-05 -0.92192262D-08  0.71101482D-05  0.68114128D-05
 -0.12662704D-05 -0.68687432D-05 -0.13144140D-07 -0.21356482D-07  0.14130298D-06
  0.23967660D-06  0.27286334D-06  0.62337318D-05  0.32715782D-05  0.60261928D-05
  0.96888796D-05  0.12503778D-04  0.10613032D-04  0.36579029D-05 -0.49726930D-04
 -0.17727697D-04  0.62440165D-04  0.26048018D-03  0.19170289D-03  0.10362211D-03
 -0.14421283D-03 -0.10613481D-03 -0.57369576D-04 -0.23137401D-06 -0.17028192D-06
 -0.92043329D-07 -0.67356382D-04 -0.44877314D-04  0.16018198D-04  0.13410528D-06
  0.16490734D-03  0.55855613D-04 -0.36760396D-04 -0.18007270D-03 -0.33557101D-06
  0.12096400D-06  0.32920697D-05  0.60639378D-05  0.97495658D-05  0.12582095D-04
  0.10679507D-04  0.36808142D-05 -0.49809522D-04 -0.17757141D-04  0.62543872D-04
 -0.26056979D-03 -0.19176884D-03 -0.10365776D-03 -0.14427123D-03 -0.10617779D-03
 -0.57392807D-04 -0.44094445D-06 -0.32451730D-06 -0.17541294D-06 -0.67365897D-04
  0.44836225D-04  0.15979025D-04  0.15492103D-06  0.16486785D-03  0.55852467D-04
 -0.36781335D-04  0.17993936D-03  0.55954234D-06  0.31780184D-06  0.47338388D-06
  0.87196526D-06  0.14019409D-05  0.18092451D-05  0.15356620D-05  0.52928348D-06
 -0.78242956D-06 -0.27893687D-06  0.98246625D-06 -0.30510799D-05 -0.22454715D-05
 -0.12137558D-05  0.27126369D-05  0.19963911D-05  0.10791192D-05  0.50514349D-07
  0.37176520D-07  0.20095208D-07 -0.45297095D-05 -0.21874947D-05  0.61846645D-05