 Generated by Multiwfn
GAUSSIAN             78 MOL ORBITALS    720 PRIMITIVES       36 NUCLEI
  B    1    (CENTRE  1)   0.08318556 -5.46958600  0.00001071  CHARGE =  5.0
  B    2    (CENTRE  2)   4.82832340 -5.40130475  0.00001597  CHARGE =  5.0
  H    3    (CENTRE  3)   6.77538736 -6.52890448  0.00003364  CHARGE =  1.0
  B    4    (CENTRE  4)   7.13380614 -1.26402441  0.00003487  CHARGE =  5.0
  H    5    (CENTRE  5)   9.11703290 -2.32663012  0.00007311  CHARGE =  1.0
  B    6    (CENTRE  6)   4.69542518  2.80697240 -0.00001289  CHARGE =  5.0
  B    7    (CENTRE  7)   2.26357479  6.88186583 -0.00002459  CHARGE =  5.0
  H    8    (CENTRE  8)   2.26623621  9.13184943 -0.00009001  CHARGE =  1.0
  B    9    (CENTRE  9)  -2.47210624  6.80964989 -0.00002581  CHARGE =  5.0
  H   10    (CENTRE 10)  -2.54348749  9.05846409 -0.00005433  CHARGE =  1.0
  B   11    (CENTRE 11)  -4.77869772  2.66270196  0.00005414  CHARGE =  5.0
  B   12    (CENTRE 12)  -7.09189542 -1.48058601 -0.00000775  CHARGE =  5.0
  H   13    (CENTRE 13)  -9.04185670 -2.60308021 -0.00004271  CHARGE =  1.0
  B   14    (CENTRE 14)  -4.66176812 -5.54558405 -0.00005221  CHARGE =  5.0
  H   15    (CENTRE 15)  -6.57387484 -6.73150537 -0.00010877  CHARGE =  1.0
  B   16    (CENTRE 16)   2.39282301 -1.33333919  0.00001565  CHARGE =  5.0
  B   17    (CENTRE 17)  -0.04163874  2.73853922  0.00002052  CHARGE =  5.0
  B   18    (CENTRE 18)  -2.35100966 -1.40542187  0.00002118  CHARGE =  5.0
  N   19    (CENTRE 19)  -2.28552098 -6.79672909 -0.00005463  CHARGE =  7.0
  H   20    (CENTRE 20)  -2.28430891 -8.69977402  0.00005681  CHARGE =  1.0
  N   21    (CENTRE 21)   2.49111849 -6.72396494 -0.00001886  CHARGE =  7.0
  H   22    (CENTRE 22)   2.54822809 -8.62608779  0.00004318  CHARGE =  1.0
  N   23    (CENTRE 23)   4.79736111 -2.67305048  0.00002296  CHARGE =  7.0
  N   24    (CENTRE 24)   7.02917556  1.41942634  0.00000567  CHARGE =  7.0
  H   25    (CENTRE 25)   8.67682789  2.37162531  0.00003589  CHARGE =  1.0
  N   26    (CENTRE 26)   4.57777695  5.51942936 -0.00005403  CHARGE =  7.0
  H   27    (CENTRE 27)   6.19657897  6.51979266 -0.00006822  CHARGE =  1.0
  N   28    (CENTRE 28)  -0.08357505  5.49064567 -0.00000690  CHARGE =  7.0
  N   29    (CENTRE 29)  -4.74380045  5.37746538  0.00001521  CHARGE =  7.0
  H   30    (CENTRE 30)  -6.39233383  6.32807310  0.00010278  CHARGE =  1.0
  N   31    (CENTRE 31)  -7.06905101  1.20473994  0.00002270  CHARGE =  7.0
  H   32    (CENTRE 32)  -8.74481507  2.10639979  0.00007602  CHARGE =  1.0
  N   33    (CENTRE 33)  -4.71363857 -2.81770281 -0.00000741  CHARGE =  7.0
  N   34    (CENTRE 34)   0.04164102 -2.73208613  0.00000323  CHARGE =  7.0
  N   35    (CENTRE 35)   2.34548064  1.40190480  0.00000019  CHARGE =  7.0
  N   36    (CENTRE 36)  -2.38692856  1.32997372  0.00002812  CHARGE =  7.0
CENTRE ASSIGNMENTS    1  1  1  1  1  1  1  1  1  1  1  1  1  1  1  1  1  1  1  1
CENTRE ASSIGNMENTS    1  1  1  1  1  1  1  1  2  2  2  2  2  2  2  2  2  2  2  2
CENTRE ASSIGNMENTS    2  2  2  2  2  2  2  2  2  2  2  2  2  2  2  2  3  3  3  3
CENTRE ASSIGNMENTS    4  4  4  4  4  4  4  4  4  4  4  4  4  4  4  4  4  4  4  4
CENTRE ASSIGNMENTS    4  4  4  4  4  4  4  4  5  5  5  5  6  6  6  6  6  6  6  6
CENTRE ASSIGNMENTS    6  6  6  6  6  6  6  6  6  6  6  6  6  6  6  6  6  6  6  6
CENTRE ASSIGNMENTS    7  7  7  7  7  7  7  7  7  7  7  7  7  7  7  7  7  7  7  7
CENTRE ASSIGNMENTS    7  7  7  7  7  7  7  7  8  8  8  8  9  9  9  9  9  9  9  9
CENTRE ASSIGNMENTS    9  9  9  9  9  9  9  9  9  9  9  9  9  9  9  9  9  9  9  9
CENTRE ASSIGNMENTS   10 10 10 10 11 11 11 11 11 11 11 11 11 11 11 11 11 11 11 11
CENTRE ASSIGNMENTS   11 11 11 11 11 11 11 11 11 11 11 11 12 12 12 12 12 12 12 12
CENTRE ASSIGNMENTS   12 12 12 12 12 12 12 12 12 12 12 12 12 12 12 12 12 12 12 12
CENTRE ASSIGNMENTS   13 13 13 13 14 14 14 14 14 14 14 14 14 14 14 14 14 14 14 14
CENTRE ASSIGNMENTS   14 14 14 14 14 14 14 14 14 14 14 14 15 15 15 15 16 16 16 16
CENTRE ASSIGNMENTS   16 16 16 16 16 16 16 16 16 16 16 16 16 16 16 16 16 16 16 16
CENTRE ASSIGNMENTS   16 16 16 16 17 17 17 17 17 17 17 17 17 17 17 17 17 17 17 17
CENTRE ASSIGNMENTS   17 17 17 17 17 17 17 17 17 17 17 17 18 18 18 18 18 18 18 18
CENTRE ASSIGNMENTS   18 18 18 18 18 18 18 18 18 18 18 18 18 18 18 18 18 18 18 18
CENTRE ASSIGNMENTS   19 19 19 19 19 19 19 19 19 19 19 19 19 19 19 19 19 19 19 19
CENTRE ASSIGNMENTS   19 19 19 19 19 19 19 19 20 20 20 20 21 21 21 21 21 21 21 21
CENTRE ASSIGNMENTS   21 21 21 21 21 21 21 21 21 21 21 21 21 21 21 21 21 21 21 21
CENTRE ASSIGNMENTS   22 22 22 22 23 23 23 23 23 23 23 23 23 23 23 23 23 23 23 23
CENTRE ASSIGNMENTS   23 23 23 23 23 23 23 23 23 23 23 23 24 24 24 24 24 24 24 24
CENTRE ASSIGNMENTS   24 24 24 24 24 24 24 24 24 24 24 24 24 24 24 24 24 24 24 24
CENTRE ASSIGNMENTS   25 25 25 25 26 26 26 26 26 26 26 26 26 26 26 26 26 26 26 26
CENTRE ASSIGNMENTS   26 26 26 26 26 26 26 26 26 26 26 26 27 27 27 27 28 28 28 28
CENTRE ASSIGNMENTS   28 28 28 28 28 28 28 28 28 28 28 28 28 28 28 28 28 28 28 28
CENTRE ASSIGNMENTS   28 28 28 28 29 29 29 29 29 29 29 29 29 29 29 29 29 29 29 29
CENTRE ASSIGNMENTS   29 29 29 29 29 29 29 29 29 29 29 29 30 30 30 30 31 31 31 31
CENTRE ASSIGNMENTS   31 31 31 31 31 31 31 31 31 31 31 31 31 31 31 31 31 31 31 31
CENTRE ASSIGNMENTS   31 31 31 31 32 32 32 32 33 33 33 33 33 33 33 33 33 33 33 33
CENTRE ASSIGNMENTS   33 33 33 33 33 33 33 33 33 33 33 33 33 33 33 33 34 34 34 34
CENTRE ASSIGNMENTS   34 34 34 34 34 34 34 34 34 34 34 34 34 34 34 34 34 34 34 34
CENTRE ASSIGNMENTS   34 34 34 34 35 35 35 35 35 35 35 35 35 35 35 35 35 35 35 35
CENTRE ASSIGNMENTS   35 35 35 35 35 35 35 35 35 35 35 35 36 36 36 36 36 36 36 36
CENTRE ASSIGNMENTS   36 36 36 36 36 36 36 36 36 36 36 36 36 36 36 36 36 36 36 36
TYPE ASSIGNMENTS      1  1  1  1  1  1  1  1  1  2  2  2  3  3  3  4  4  4  1  2
TYPE ASSIGNMENTS      3  4  5  6  7  8  9 10  1  1  1  1  1  1  1  1  1  2  2  2
TYPE ASSIGNMENTS      3  3  3  4  4  4  1  2  3  4  5  6  7  8  9 10  1  1  1  1
TYPE ASSIGNMENTS      1  1  1  1  1  1  1  1  1  2  2  2  3  3  3  4  4  4  1  2
TYPE ASSIGNMENTS      3  4  5  6  7  8  9 10  1  1  1  1  1  1  1  1  1  1  1  1
TYPE ASSIGNMENTS      1  2  2  2  3  3  3  4  4  4  1  2  3  4  5  6  7  8  9 10
TYPE ASSIGNMENTS      1  1  1  1  1  1  1  1  1  2  2  2  3  3  3  4  4  4  1  2
TYPE ASSIGNMENTS      3  4  5  6  7  8  9 10  1  1  1  1  1  1  1  1  1  1  1  1
TYPE ASSIGNMENTS      1  2  2  2  3  3  3  4  4  4  1  2  3  4  5  6  7  8  9 10
TYPE ASSIGNMENTS      1  1  1  1  1  1  1  1  1  1  1  1  1  2  2  2  3  3  3  4
TYPE ASSIGNMENTS      4  4  1  2  3  4  5  6  7  8  9 10  1  1  1  1  1  1  1  1
TYPE ASSIGNMENTS      1  2  2  2  3  3  3  4  4  4  1  2  3  4  5  6  7  8  9 10
TYPE ASSIGNMENTS      1  1  1  1  1  1  1  1  1  1  1  1  1  2  2  2  3  3  3  4
TYPE ASSIGNMENTS      4  4  1  2  3  4  5  6  7  8  9 10  1  1  1  1  1  1  1  1
TYPE ASSIGNMENTS      1  1  1  1  1  2  2  2  3  3  3  4  4  4  1  2  3  4  5  6
TYPE ASSIGNMENTS      7  8  9 10  1  1  1  1  1  1  1  1  1  2  2  2  3  3  3  4
TYPE ASSIGNMENTS      4  4  1  2  3  4  5  6  7  8  9 10  1  1  1  1  1  1  1  1
TYPE ASSIGNMENTS      1  2  2  2  3  3  3  4  4  4  1  2  3  4  5  6  7  8  9 10
TYPE ASSIGNMENTS      1  1  1  1  1  1  1  1  1  2  2  2  3  3  3  4  4  4  1  2
TYPE ASSIGNMENTS      3  4  5  6  7  8  9 10  1  1  1  1  1  1  1  1  1  1  1  1
TYPE ASSIGNMENTS      1  2  2  2  3  3  3  4  4  4  1  2  3  4  5  6  7  8  9 10
TYPE ASSIGNMENTS      1  1  1  1  1  1  1  1  1  1  1  1  1  2  2  2  3  3  3  4
TYPE ASSIGNMENTS      4  4  1  2  3  4  5  6  7  8  9 10  1  1  1  1  1  1  1  1
TYPE ASSIGNMENTS      1  2  2  2  3  3  3  4  4  4  1  2  3  4  5  6  7  8  9 10
TYPE ASSIGNMENTS      1  1  1  1  1  1  1  1  1  1  1  1  1  2  2  2  3  3  3  4
TYPE ASSIGNMENTS      4  4  1  2  3  4  5  6  7  8  9 10  1  1  1  1  1  1  1  1
TYPE ASSIGNMENTS      1  1  1  1  1  2  2  2  3  3  3  4  4  4  1  2  3  4  5  6
TYPE ASSIGNMENTS      7  8  9 10  1  1  1  1  1  1  1  1  1  2  2  2  3  3  3  4
TYPE ASSIGNMENTS      4  4  1  2  3  4  5  6  7  8  9 10  1  1  1  1  1  1  1  1
TYPE ASSIGNMENTS      1  1  1  1  1  2  2  2  3  3  3  4  4  4  1  2  3  4  5  6
TYPE ASSIGNMENTS      7  8  9 10  1  1  1  1  1  1  1  1  1  1  1  1  1  2  2  2
TYPE ASSIGNMENTS      3  3  3  4  4  4  1  2  3  4  5  6  7  8  9 10  1  1  1  1
TYPE ASSIGNMENTS      1  1  1  1  1  2  2  2  3  3  3  4  4  4  1  2  3  4  5  6
TYPE ASSIGNMENTS      7  8  9 10  1  1  1  1  1  1  1  1  1  2  2  2  3  3  3  4
TYPE ASSIGNMENTS      4  4  1  2  3  4  5  6  7  8  9 10  1  1  1  1  1  1  1  1
TYPE ASSIGNMENTS      1  2  2  2  3  3  3  4  4  4  1  2  3  4  5  6  7  8  9 10
EXPONENTS  0.2068882D+04 0.3106496D+03 0.7068303D+02 0.1986108D+02 0.6299305D+01
EXPONENTS  0.2127027D+01 0.4727971D+01 0.1190338D+01 0.3594117D+00 0.4727971D+01
EXPONENTS  0.1190338D+01 0.3594117D+00 0.4727971D+01 0.1190338D+01 0.3594117D+00
EXPONENTS  0.4727971D+01 0.1190338D+01 0.3594117D+00 0.1267512D+00 0.1267512D+00
EXPONENTS  0.1267512D+00 0.1267512D+00 0.6000000D+00 0.6000000D+00 0.6000000D+00
EXPONENTS  0.6000000D+00 0.6000000D+00 0.6000000D+00 0.2068882D+04 0.3106496D+03
EXPONENTS  0.7068303D+02 0.1986108D+02 0.6299305D+01 0.2127027D+01 0.4727971D+01
EXPONENTS  0.1190338D+01 0.3594117D+00 0.4727971D+01 0.1190338D+01 0.3594117D+00
EXPONENTS  0.4727971D+01 0.1190338D+01 0.3594117D+00 0.4727971D+01 0.1190338D+01
EXPONENTS  0.3594117D+00 0.1267512D+00 0.1267512D+00 0.1267512D+00 0.1267512D+00
EXPONENTS  0.6000000D+00 0.6000000D+00 0.6000000D+00 0.6000000D+00 0.6000000D+00
EXPONENTS  0.6000000D+00 0.1873114D+02 0.2825394D+01 0.6401217D+00 0.1612778D+00
EXPONENTS  0.2068882D+04 0.3106496D+03 0.7068303D+02 0.1986108D+02 0.6299305D+01
EXPONENTS  0.2127027D+01 0.4727971D+01 0.1190338D+01 0.3594117D+00 0.4727971D+01
EXPONENTS  0.1190338D+01 0.3594117D+00 0.4727971D+01 0.1190338D+01 0.3594117D+00
EXPONENTS  0.4727971D+01 0.1190338D+01 0.3594117D+00 0.1267512D+00 0.1267512D+00
EXPONENTS  0.1267512D+00 0.1267512D+00 0.6000000D+00 0.6000000D+00 0.6000000D+00
EXPONENTS  0.6000000D+00 0.6000000D+00 0.6000000D+00 0.1873114D+02 0.2825394D+01
EXPONENTS  0.6401217D+00 0.1612778D+00 0.2068882D+04 0.3106496D+03 0.7068303D+02
EXPONENTS  0.1986108D+02 0.6299305D+01 0.2127027D+01 0.4727971D+01 0.1190338D+01
EXPONENTS  0.3594117D+00 0.4727971D+01 0.1190338D+01 0.3594117D+00 0.4727971D+01
EXPONENTS  0.1190338D+01 0.3594117D+00 0.4727971D+01 0.1190338D+01 0.3594117D+00
EXPONENTS  0.1267512D+00 0.1267512D+00 0.1267512D+00 0.1267512D+00 0.6000000D+00
EXPONENTS  0.6000000D+00 0.6000000D+00 0.6000000D+00 0.6000000D+00 0.6000000D+00
EXPONENTS  0.2068882D+04 0.3106496D+03 0.7068303D+02 0.1986108D+02 0.6299305D+01
EXPONENTS  0.2127027D+01 0.4727971D+01 0.1190338D+01 0.3594117D+00 0.4727971D+01
EXPONENTS  0.1190338D+01 0.3594117D+00 0.4727971D+01 0.1190338D+01 0.3594117D+00
EXPONENTS  0.4727971D+01 0.1190338D+01 0.3594117D+00 0.1267512D+00 0.1267512D+00
EXPONENTS  0.1267512D+00 0.1267512D+00 0.6000000D+00 0.6000000D+00 0.6000000D+00
EXPONENTS  0.6000000D+00 0.6000000D+00 0.6000000D+00 0.1873114D+02 0.2825394D+01
EXPONENTS  0.6401217D+00 0.1612778D+00 0.2068882D+04 0.3106496D+03 0.7068303D+02
EXPONENTS  0.1986108D+02 0.6299305D+01 0.2127027D+01 0.4727971D+01 0.1190338D+01
EXPONENTS  0.3594117D+00 0.4727971D+01 0.1190338D+01 0.3594117D+00 0.4727971D+01
EXPONENTS  0.1190338D+01 0.3594117D+00 0.4727971D+01 0.1190338D+01 0.3594117D+00
EXPONENTS  0.1267512D+00 0.1267512D+00 0.1267512D+00 0.1267512D+00 0.6000000D+00
EXPONENTS  0.6000000D+00 0.6000000D+00 0.6000000D+00 0.6000000D+00 0.6000000D+00
EXPONENTS  0.1873114D+02 0.2825394D+01 0.6401217D+00 0.1612778D+00 0.2068882D+04
EXPONENTS  0.3106496D+03 0.7068303D+02 0.1986108D+02 0.6299305D+01 0.2127027D+01
EXPONENTS  0.4727971D+01 0.1190338D+01 0.3594117D+00 0.4727971D+01 0.1190338D+01
EXPONENTS  0.3594117D+00 0.4727971D+01 0.1190338D+01 0.3594117D+00 0.4727971D+01
EXPONENTS  0.1190338D+01 0.3594117D+00 0.1267512D+00 0.1267512D+00 0.1267512D+00
EXPONENTS  0.1267512D+00 0.6000000D+00 0.6000000D+00 0.6000000D+00 0.6000000D+00
EXPONENTS  0.6000000D+00 0.6000000D+00 0.2068882D+04 0.3106496D+03 0.7068303D+02
EXPONENTS  0.1986108D+02 0.6299305D+01 0.2127027D+01 0.4727971D+01 0.1190338D+01
EXPONENTS  0.3594117D+00 0.4727971D+01 0.1190338D+01 0.3594117D+00 0.4727971D+01
EXPONENTS  0.1190338D+01 0.3594117D+00 0.4727971D+01 0.1190338D+01 0.3594117D+00
EXPONENTS  0.1267512D+00 0.1267512D+00 0.1267512D+00 0.1267512D+00 0.6000000D+00
EXPONENTS  0.6000000D+00 0.6000000D+00 0.6000000D+00 0.6000000D+00 0.6000000D+00
EXPONENTS  0.1873114D+02 0.2825394D+01 0.6401217D+00 0.1612778D+00 0.2068882D+04
EXPONENTS  0.3106496D+03 0.7068303D+02 0.1986108D+02 0.6299305D+01 0.2127027D+01
EXPONENTS  0.4727971D+01 0.1190338D+01 0.3594117D+00 0.4727971D+01 0.1190338D+01
EXPONENTS  0.3594117D+00 0.4727971D+01 0.1190338D+01 0.3594117D+00 0.4727971D+01
EXPONENTS  0.1190338D+01 0.3594117D+00 0.1267512D+00 0.1267512D+00 0.1267512D+00
EXPONENTS  0.1267512D+00 0.6000000D+00 0.6000000D+00 0.6000000D+00 0.6000000D+00
EXPONENTS  0.6000000D+00 0.6000000D+00 0.1873114D+02 0.2825394D+01 0.6401217D+00
EXPONENTS  0.1612778D+00 0.2068882D+04 0.3106496D+03 0.7068303D+02 0.1986108D+02
EXPONENTS  0.6299305D+01 0.2127027D+01 0.4727971D+01 0.1190338D+01 0.3594117D+00
EXPONENTS  0.4727971D+01 0.1190338D+01 0.3594117D+00 0.4727971D+01 0.1190338D+01
EXPONENTS  0.3594117D+00 0.4727971D+01 0.1190338D+01 0.3594117D+00 0.1267512D+00
EXPONENTS  0.1267512D+00 0.1267512D+00 0.1267512D+00 0.6000000D+00 0.6000000D+00
EXPONENTS  0.6000000D+00 0.6000000D+00 0.6000000D+00 0.6000000D+00 0.2068882D+04
EXPONENTS  0.3106496D+03 0.7068303D+02 0.1986108D+02 0.6299305D+01 0.2127027D+01
EXPONENTS  0.4727971D+01 0.1190338D+01 0.3594117D+00 0.4727971D+01 0.1190338D+01
EXPONENTS  0.3594117D+00 0.4727971D+01 0.1190338D+01 0.3594117D+00 0.4727971D+01
EXPONENTS  0.1190338D+01 0.3594117D+00 0.1267512D+00 0.1267512D+00 0.1267512D+00
EXPONENTS  0.1267512D+00 0.6000000D+00 0.6000000D+00 0.6000000D+00 0.6000000D+00
EXPONENTS  0.6000000D+00 0.6000000D+00 0.2068882D+04 0.3106496D+03 0.7068303D+02
EXPONENTS  0.1986108D+02 0.6299305D+01 0.2127027D+01 0.4727971D+01 0.1190338D+01
EXPONENTS  0.3594117D+00 0.4727971D+01 0.1190338D+01 0.3594117D+00 0.4727971D+01
EXPONENTS  0.1190338D+01 0.3594117D+00 0.4727971D+01 0.1190338D+01 0.3594117D+00
EXPONENTS  0.1267512D+00 0.1267512D+00 0.1267512D+00 0.1267512D+00 0.6000000D+00
EXPONENTS  0.6000000D+00 0.6000000D+00 0.6000000D+00 0.6000000D+00 0.6000000D+00
EXPONENTS  0.4173511D+04 0.6274579D+03 0.1429021D+03 0.4023433D+02 0.1282021D+02
EXPONENTS  0.4390437D+01 0.1162636D+02 0.2716280D+01 0.7722184D+00 0.1162636D+02
EXPONENTS  0.2716280D+01 0.7722184D+00 0.1162636D+02 0.2716280D+01 0.7722184D+00
EXPONENTS  0.1162636D+02 0.2716280D+01 0.7722184D+00 0.2120315D+00 0.2120315D+00
EXPONENTS  0.2120315D+00 0.2120315D+00 0.8000000D+00 0.8000000D+00 0.8000000D+00
EXPONENTS  0.8000000D+00 0.8000000D+00 0.8000000D+00 0.1873114D+02 0.2825394D+01
EXPONENTS  0.6401217D+00 0.1612778D+00 0.4173511D+04 0.6274579D+03 0.1429021D+03
EXPONENTS  0.4023433D+02 0.1282021D+02 0.4390437D+01 0.1162636D+02 0.2716280D+01
EXPONENTS  0.7722184D+00 0.1162636D+02 0.2716280D+01 0.7722184D+00 0.1162636D+02
EXPONENTS  0.2716280D+01 0.7722184D+00 0.1162636D+02 0.2716280D+01 0.7722184D+00
EXPONENTS  0.2120315D+00 0.2120315D+00 0.2120315D+00 0.2120315D+00 0.8000000D+00
EXPONENTS  0.8000000D+00 0.8000000D+00 0.8000000D+00 0.8000000D+00 0.8000000D+00
EXPONENTS  0.1873114D+02 0.2825394D+01 0.6401217D+00 0.1612778D+00 0.4173511D+04
EXPONENTS  0.6274579D+03 0.1429021D+03 0.4023433D+02 0.1282021D+02 0.4390437D+01
EXPONENTS  0.1162636D+02 0.2716280D+01 0.7722184D+00 0.1162636D+02 0.2716280D+01
EXPONENTS  0.7722184D+00 0.1162636D+02 0.2716280D+01 0.7722184D+00 0.1162636D+02
EXPONENTS  0.2716280D+01 0.7722184D+00 0.2120315D+00 0.2120315D+00 0.2120315D+00
EXPONENTS  0.2120315D+00 0.8000000D+00 0.8000000D+00 0.8000000D+00 0.8000000D+00
EXPONENTS  0.8000000D+00 0.8000000D+00 0.4173511D+04 0.6274579D+03 0.1429021D+03
EXPONENTS  0.4023433D+02 0.1282021D+02 0.4390437D+01 0.1162636D+02 0.2716280D+01
EXPONENTS  0.7722184D+00 0.1162636D+02 0.2716280D+01 0.7722184D+00 0.1162636D+02
EXPONENTS  0.2716280D+01 0.7722184D+00 0.1162636D+02 0.2716280D+01 0.7722184D+00
EXPONENTS  0.2120315D+00 0.2120315D+00 0.2120315D+00 0.2120315D+00 0.8000000D+00
EXPONENTS  0.8000000D+00 0.8000000D+00 0.8000000D+00 0.8000000D+00 0.8000000D+00
EXPONENTS  0.1873114D+02 0.2825394D+01 0.6401217D+00 0.1612778D+00 0.4173511D+04
EXPONENTS  0.6274579D+03 0.1429021D+03 0.4023433D+02 0.1282021D+02 0.4390437D+01
EXPONENTS  0.1162636D+02 0.2716280D+01 0.7722184D+00 0.1162636D+02 0.2716280D+01
EXPONENTS  0.7722184D+00 0.1162636D+02 0.2716280D+01 0.7722184D+00 0.1162636D+02
EXPONENTS  0.2716280D+01 0.7722184D+00 0.2120315D+00 0.2120315D+00 0.2120315D+00
EXPONENTS  0.2120315D+00 0.8000000D+00 0.8000000D+00 0.8000000D+00 0.8000000D+00
EXPONENTS  0.8000000D+00 0.8000000D+00 0.1873114D+02 0.2825394D+01 0.6401217D+00
EXPONENTS  0.1612778D+00 0.4173511D+04 0.6274579D+03 0.1429021D+03 0.4023433D+02
EXPONENTS  0.1282021D+02 0.4390437D+01 0.1162636D+02 0.2716280D+01 0.7722184D+00
EXPONENTS  0.1162636D+02 0.2716280D+01 0.7722184D+00 0.1162636D+02 0.2716280D+01
EXPONENTS  0.7722184D+00 0.1162636D+02 0.2716280D+01 0.7722184D+00 0.2120315D+00
EXPONENTS  0.2120315D+00 0.2120315D+00 0.2120315D+00 0.8000000D+00 0.8000000D+00
EXPONENTS  0.8000000D+00 0.8000000D+00 0.8000000D+00 0.8000000D+00 0.4173511D+04
EXPONENTS  0.6274579D+03 0.1429021D+03 0.4023433D+02 0.1282021D+02 0.4390437D+01
EXPONENTS  0.1162636D+02 0.2716280D+01 0.7722184D+00 0.1162636D+02 0.2716280D+01
EXPONENTS  0.7722184D+00 0.1162636D+02 0.2716280D+01 0.7722184D+00 0.1162636D+02
EXPONENTS  0.2716280D+01 0.7722184D+00 0.2120315D+00 0.2120315D+00 0.2120315D+00
EXPONENTS  0.2120315D+00 0.8000000D+00 0.8000000D+00 0.8000000D+00 0.8000000D+00
EXPONENTS  0.8000000D+00 0.8000000D+00 0.1873114D+02 0.2825394D+01 0.6401217D+00
EXPONENTS  0.1612778D+00 0.4173511D+04 0.6274579D+03 0.1429021D+03 0.4023433D+02
EXPONENTS  0.1282021D+02 0.4390437D+01 0.1162636D+02 0.2716280D+01 0.7722184D+00
EXPONENTS  0.1162636D+02 0.2716280D+01 0.7722184D+00 0.1162636D+02 0.2716280D+01
EXPONENTS  0.7722184D+00 0.1162636D+02 0.2716280D+01 0.7722184D+00 0.2120315D+00
EXPONENTS  0.2120315D+00 0.2120315D+00 0.2120315D+00 0.8000000D+00 0.8000000D+00
EXPONENTS  0.8000000D+00 0.8000000D+00 0.8000000D+00 0.8000000D+00 0.1873114D+02
EXPONENTS  0.2825394D+01 0.6401217D+00 0.1612778D+00 0.4173511D+04 0.6274579D+03
EXPONENTS  0.1429021D+03 0.4023433D+02 0.1282021D+02 0.4390437D+01 0.1162636D+02
EXPONENTS  0.2716280D+01 0.7722184D+00 0.1162636D+02 0.2716280D+01 0.7722184D+00
EXPONENTS  0.1162636D+02 0.2716280D+01 0.7722184D+00 0.1162636D+02 0.2716280D+01
EXPONENTS  0.7722184D+00 0.2120315D+00 0.2120315D+00 0.2120315D+00 0.2120315D+00
EXPONENTS  0.8000000D+00 0.8000000D+00 0.8000000D+00 0.8000000D+00 0.8000000D+00
EXPONENTS  0.8000000D+00 0.4173511D+04 0.6274579D+03 0.1429021D+03 0.4023433D+02
EXPONENTS  0.1282021D+02 0.4390437D+01 0.1162636D+02 0.2716280D+01 0.7722184D+00
EXPONENTS  0.1162636D+02 0.2716280D+01 0.7722184D+00 0.1162636D+02 0.2716280D+01
EXPONENTS  0.7722184D+00 0.1162636D+02 0.2716280D+01 0.7722184D+00 0.2120315D+00
EXPONENTS  0.2120315D+00 0.2120315D+00 0.2120315D+00 0.8000000D+00 0.8000000D+00
EXPONENTS  0.8000000D+00 0.8000000D+00 0.8000000D+00 0.8000000D+00 0.4173511D+04
EXPONENTS  0.6274579D+03 0.1429021D+03 0.4023433D+02 0.1282021D+02 0.4390437D+01
EXPONENTS  0.1162636D+02 0.2716280D+01 0.7722184D+00 0.1162636D+02 0.2716280D+01
EXPONENTS  0.7722184D+00 0.1162636D+02 0.2716280D+01 0.7722184D+00 0.1162636D+02
EXPONENTS  0.2716280D+01 0.7722184D+00 0.2120315D+00 0.2120315D+00 0.2120315D+00
EXPONENTS  0.2120315D+00 0.8000000D+00 0.8000000D+00 0.8000000D+00 0.8000000D+00
EXPONENTS  0.8000000D+00 0.8000000D+00 0.4173511D+04 0.6274579D+03 0.1429021D+03
EXPONENTS  0.4023433D+02 0.1282021D+02 0.4390437D+01 0.1162636D+02 0.2716280D+01
EXPONENTS  0.7722184D+00 0.1162636D+02 0.2716280D+01 0.7722184D+00 0.1162636D+02
EXPONENTS  0.2716280D+01 0.7722184D+00 0.1162636D+02 0.2716280D+01 0.7722184D+00
EXPONENTS  0.2120315D+00 0.2120315D+00 0.2120315D+00 0.2120315D+00 0.8000000D+00
EXPONENTS  0.8000000D+00 0.8000000D+00 0.8000000D+00 0.8000000D+00 0.8000000D+00
MO    1     MO 0.0        OCC NO =    2.0000000  ORB. ENERGY =  -14.314648
 -0.10447265D-06 -0.19243690D-06 -0.30939898D-06 -0.39928829D-06 -0.33891032D-06
 -0.11680932D-06  0.61128773D-06  0.21792465D-06 -0.76757013D-06  0.12925581D-05
  0.95127056D-06  0.51419498D-06 -0.17724415D-06 -0.13044453D-06 -0.70509828D-07
 -0.22592934D-10 -0.16627486D-10 -0.89877374D-11  0.18027821D-05 -0.16563804D-05
  0.58071345D-06 -0.13721039D-10  0.50916474D-06 -0.47891240D-06  0.17164135D-06
  0.30684400D-05  0.13151956D-10  0.11069581D-09 -0.47664739D-06 -0.87797658D-06
 -0.14116059D-05 -0.18217181D-05 -0.15462488D-05 -0.53293236D-06  0.24134074D-05
  0.86038198D-06 -0.30304214D-05 -0.17672268D-05 -0.13006075D-05 -0.70302381D-06
 -0.57368144D-06 -0.42220636D-06 -0.22821729D-06  0.29148519D-09  0.21452132D-09
  0.11595627D-09 -0.35753716D-05 -0.20169145D-05 -0.34652168D-05 -0.13132326D-09
 -0.97429891D-06  0.62416608D-05 -0.17306077D-05 -0.26037913D-05 -0.30619410D-10
  0.17246018D-09  0.87154411D-06  0.14783038D-05  0.16829966D-05 -0.24527676D-05
  0.11489942D-05  0.21164282D-05  0.34027815D-05  0.43913875D-05  0.37273484D-05
  0.12846733D-05 -0.33057903D-04 -0.11785173D-04  0.41509518D-04 -0.22029030D-04
 -0.16212476D-04 -0.87634097D-05  0.22794779D-03  0.16776036D-03  0.90680339D-04
 -0.29496184D-08 -0.21707999D-08 -0.11733932D-08 -0.51680366D-04 -0.11787692D-05
 -0.23448513D-04  0.52763052D-09 -0.18903814D-04  0.14452000D-03 -0.28161134D-04
 -0.85634266D-06 -0.23644601D-09 -0.37897501D-08  0.16328701D-05  0.27696567D-05
  0.31531562D-05  0.37439385D-05  0.82818874D-07  0.15255099D-06  0.24527064D-06
  0.31652883D-06  0.26866525D-06  0.92598551D-07 -0.13186032D-05 -0.47008327D-06
  0.16557185D-05  0.19035282D-03  0.14009199D-03  0.75724614D-04 -0.31157153D-03
 -0.22930406D-03 -0.12394686D-03  0.44185376D-08  0.32518651D-08  0.17577467D-08
 -0.16981240D-05 -0.36994269D-04  0.61097854D-04 -0.97195058D-09  0.11000696D-03
 -0.10462832D-03 -0.89593801D-06 -0.11832012D-03  0.16341092D-08  0.36410700D-08
 -0.10748952D-05 -0.19799391D-05 -0.31833352D-05 -0.41081857D-05 -0.34869706D-05
 -0.12018243D-05  0.31815337D-04  0.11342197D-04 -0.39949277D-04 -0.18377043D-03
 -0.13524761D-03 -0.73106061D-04  0.12263841D-03  0.90256917D-04  0.48787018D-04
  0.23995653D-08  0.17659831D-08  0.95457559D-09  0.49571094D-04  0.20229111D-04
 -0.98334818D-05 -0.66343644D-09 -0.10335229D-03 -0.17269075D-04  0.27159030D-04
  0.13185020D-03  0.34465215D-08 -0.17592229D-08 -0.15707676D-05 -0.26643192D-05
 -0.30332333D-05 -0.33999515D-05  0.43537377D-06  0.80195125D-06  0.12893728D-05
  0.16639727D-05  0.14123568D-05  0.48678493D-06 -0.22105746D-05 -0.78807191D-06
  0.27757322D-05  0.12736554D-05  0.93735891D-06  0.50667525D-06  0.15537905D-05
  0.11435270D-05  0.61811631D-06 -0.36448951D-09 -0.26824955D-09 -0.14499826D-09
  0.34240920D-05  0.37592207D-05  0.12354516D-06  0.12946824D-09 -0.36589314D-05
 -0.17637477D-05  0.16808711D-05  0.71486552D-05 -0.17167899D-09  0.21859964D-09
 -0.83048342D-06 -0.14086571D-05 -0.16037063D-05  0.23474931D-05  0.90408761D-07
  0.16653144D-06  0.26774833D-06  0.34553692D-06  0.29328691D-06  0.10108469D-06
 -0.48969757D-06 -0.17457764D-06  0.61489412D-06 -0.30525581D-06 -0.22465594D-06
 -0.12143439D-06 -0.12825285D-05 -0.94388915D-06 -0.51020507D-06  0.96138769D-10
  0.70754249D-10  0.38245144D-10 -0.16514746D-05  0.28748337D-06  0.17695107D-05
  0.10626028D-10 -0.11544575D-05  0.72380506D-06 -0.11705569D-06 -0.25467870D-05
 -0.28484776D-10  0.36115437D-10 -0.12705379D-06 -0.23403097D-06 -0.37627371D-06
 -0.48559205D-06 -0.41216375D-06 -0.14205695D-06  0.39764920D-06  0.14176231D-06
 -0.49931257D-06 -0.10035480D-05 -0.73857078D-06 -0.39922331D-06 -0.40382468D-06
 -0.29719865D-06 -0.16064625D-06 -0.30861909D-10 -0.22713118D-10 -0.12277234D-10
 -0.52078944D-07 -0.84897328D-08  0.50672234D-06  0.10474365D-10 -0.51506159D-06
 -0.35180584D-07 -0.36416756D-06 -0.80665619D-07 -0.45133443D-11  0.25303745D-11
  0.23741732D-07  0.40270470D-07  0.45846507D-07  0.23771161D-06  0.12467673D-06
  0.22965246D-06  0.36923396D-06  0.47650706D-06  0.40445253D-06  0.13939919D-06
 -0.35604538D-06 -0.12693051D-06  0.44707227D-06  0.61843012D-06  0.45513958D-06
  0.24601885D-06  0.79330719D-06  0.58384204D-06  0.31558702D-06  0.23568206D-10
  0.17345247D-10  0.93757122D-11  0.15523809D-06 -0.40330365D-06  0.24176577D-06
 -0.86627502D-11  0.59330899D-07  0.33439793D-06  0.39946742D-06  0.62713206D-06
 -0.20464421D-11 -0.61330797D-11 -0.27277021D-07 -0.46266990D-07 -0.52673333D-07
 -0.22988226D-06  0.15339459D-05  0.28255030D-05  0.45428281D-05  0.58626505D-05
  0.49761358D-05  0.17150821D-05 -0.70761861D-05 -0.25226669D-05  0.88852905D-05
  0.11470334D-04  0.84417027D-05  0.45630353D-05  0.71669070D-05  0.52745540D-05
  0.28510807D-05 -0.34844511D-09 -0.25644152D-09 -0.13861560D-09  0.26619598D-04
  0.11665545D-04  0.70978976D-05  0.92041825D-10  0.41665389D-05 -0.58378625D-06
  0.30335222D-05  0.30205298D-05  0.94638912D-10 -0.16513231D-09 -0.14824201D-05
 -0.27305933D-05 -0.43902329D-05 -0.56657219D-05 -0.48089856D-05 -0.16574719D-05
  0.68764930D-05  0.24514761D-05 -0.86345437D-05 -0.11395845D-04 -0.83868812D-05
 -0.45334024D-05 -0.63152009D-05 -0.46477327D-05 -0.25122619D-05  0.26747210D-09
  0.19684866D-09  0.10640358D-09 -0.26271315D-04 -0.11417100D-04 -0.66631123D-05
  0.12676032D-09 -0.14999989D-05 -0.15670596D-05 -0.29749208D-05 -0.57803067D-05
 -0.40032639D-10  0.69513459D-10 -0.24072527D-08 -0.44341195D-08 -0.71291529D-08
 -0.92003771D-08 -0.78091515D-08 -0.26915134D-08  0.19091873D-07  0.68062706D-08
 -0.23972920D-07 -0.12792466D-05 -0.94147378D-06 -0.50889948D-06  0.22242312D-05
  0.16369443D-05  0.88482557D-06  0.87910427D-10  0.64698522D-10  0.34971812D-10
  0.97340834D-07 -0.52561541D-06  0.10421158D-05  0.85195129D-11  0.18503302D-06
 -0.16149863D-06 -0.40185173D-09 -0.94761905D-07  0.27236763D-10  0.13095012D-11
 -0.10005005D-02 -0.18425053D-02 -0.29769866D-02 -0.38962355D-02 -0.33374749D-02
 -0.11481300D-02  0.25777480D-04  0.12743119D-04 -0.33615531D-04  0.23117530D-07
  0.17997367D-07  0.85457863D-08  0.24863016D-05  0.19356255D-05  0.91910344D-06
 -0.18790369D-09 -0.14628602D-09 -0.69461779D-10 -0.41624590D-05 -0.10131949D-05
 -0.14327847D-05 -0.16933102D-10  0.14505673D-04  0.15186021D-04  0.15603715D-04
 -0.11939316D-05 -0.49025710D-10 -0.97705749D-10 -0.24209175D-06 -0.41063343D-06
 -0.46749164D-06 -0.49178018D-07  0.50383784D-03  0.92785948D-03  0.14991681D-02
  0.19620888D-02  0.16807049D-02  0.57818196D-03 -0.14326247D-04 -0.70821921D-05
  0.18682369D-04  0.26447974D-05  0.20590170D-05  0.97769412D-06  0.43064867D-06
  0.33526687D-06  0.15919657D-06 -0.19027437D-09 -0.14813164D-09 -0.70338141D-10
 -0.14472795D-05 -0.24356437D-05  0.21183217D-06  0.10072833D-09 -0.59101832D-05
 -0.63725969D-05 -0.54199096D-05  0.20343130D-06 -0.27155761D-10  0.89549805D-10
  0.26357341D-06  0.44707039D-06  0.50897383D-06 -0.50947355D-06 -0.37534906D-04
 -0.69123665D-04 -0.11168501D-03 -0.14617167D-03 -0.12520914D-03 -0.43073393D-04
 -0.18507712D-04 -0.91493029D-05  0.24135275D-04 -0.14440997D-05 -0.11242547D-05
 -0.53383589D-06  0.16103348D-04  0.12536713D-04  0.59528750D-05  0.30445016D-09
  0.23701932D-09  0.11254515D-09 -0.19487886D-04  0.18252530D-05 -0.16416839D-04
 -0.21292380D-09 -0.10879355D-04 -0.29258383D-04  0.19286339D-04 -0.21859534D-04
 -0.55385509D-09  0.50875123D-09  0.48492736D+00  0.89303424D+00  0.14429000D+01
  0.18884460D+01  0.16176232D+01  0.55648113D+00 -0.12917845D-01 -0.63859476D-02
  0.16845721D-01  0.53473751D-03  0.41630169D-03  0.19767477D-03  0.37252485D-03
  0.29001654D-03  0.13771011D-03  0.20717347D-07  0.16128786D-07  0.76585180D-08
  0.77401411D-03 -0.31372535D-04 -0.12083333D-05 -0.78786140D-09 -0.68414057D-02
 -0.69139655D-02 -0.68414863D-02  0.10855194D-03  0.26103207D-09  0.25417763D-08
  0.40332506D-04  0.68411564D-04  0.77884148D-04 -0.52381378D-04 -0.46802126D+00
 -0.86190025D+00 -0.13925960D+01 -0.18226088D+01 -0.15612278D+01 -0.53708044D+00
  0.12465988D-01  0.61625714D-02 -0.16256469D-01 -0.56022576D-03 -0.43614470D-03
 -0.20709693D-03 -0.28504550D-03 -0.22191248D-03 -0.10537189D-03 -0.20160694D-07
 -0.15695422D-07 -0.74527416D-08 -0.74929408D-03  0.15086858D-04  0.27271931D-04
  0.97676585D-09  0.66132919D-02  0.66606756D-02  0.66050543D-02 -0.11476734D-03
 -0.17595225D-08  0.20849731D-09 -0.38771337D-04 -0.65763526D-04 -0.74869450D-04
  0.50852471D-04  0.36452331D-04  0.67130013D-04  0.10846381D-03  0.14195581D-03
  0.12159788D-03  0.41831078D-04  0.17666697D-04  0.87335467D-05 -0.23038537D-04
 -0.12512412D-04 -0.97411122D-05 -0.46254246D-05  0.84166185D-05  0.65524719D-05
  0.31113454D-05 -0.43379509D-09 -0.33771640D-09 -0.16035969D-09  0.18389001D-04
  0.12518685D-04 -0.89323071D-05  0.26045486D-09  0.33226400D-04  0.57343952D-05
 -0.18239242D-04 -0.35193071D-05 -0.84059743D-09  0.39757548D-09 -0.11019393D-02
 -0.20293133D-02 -0.32788175D-02 -0.42912672D-02 -0.36758549D-02 -0.12645367D-02
  0.30210946D-04  0.14934806D-04 -0.39397062D-04 -0.67743402D-06 -0.52739320D-06
 -0.25042495D-06 -0.24138097D-05 -0.18791894D-05 -0.89230558D-06  0.30447560D-09
  0.23703911D-09  0.11255456D-09  0.28108740D-06  0.81565867D-06  0.22023545D-05
 -0.20463101D-09  0.14743178D-04  0.14789088D-04  0.13966462D-04 -0.27424834D-06
 -0.12289535D-09 -0.42391359D-10 -0.31580645D-06 -0.53566751D-06 -0.60983853D-06
  0.50293335D-06  0.46492852D-03  0.85620472D-03  0.13833936D-02  0.18105648D-02
  0.15509110D-02  0.53353136D-03 -0.11465124D-04 -0.56677935D-05  0.14951276D-04
 -0.15868005D-05 -0.12353495D-05 -0.58658764D-06  0.70914382D-06  0.55207979D-06