 Generated by Multiwfn
GAUSSIAN            107 MOL ORBITALS    488 PRIMITIVES       26 NUCLEI
  B    1    (CENTRE  1)  -5.51367030 -2.37205526 -0.00026059  CHARGE =  5.0
  H    2    (CENTRE  2)  -6.67372066 -4.29950238 -0.00065528  CHARGE =  1.0
  B    3    (CENTRE  3)  -1.41468761 -4.74389709  0.00060936  CHARGE =  5.0
  H    4    (CENTRE  4)  -2.51092004 -6.70860604  0.00062472  CHARGE =  1.0
  B    5    (CENTRE  5)   2.69809381 -2.37053289  0.00005354  CHARGE =  5.0
  B    6    (CENTRE  6)   6.81180522 -0.00003466 -0.00097268  CHARGE =  5.0
  H    7    (CENTRE  7)   9.06425563 -0.00006074 -0.00119569  CHARGE =  1.0
  B    8    (CENTRE  8)   2.69811930  2.37059155  0.00041599  CHARGE =  5.0
  B    9    (CENTRE  9)  -1.41471822  4.74388086  0.00016584  CHARGE =  5.0
  H   10    (CENTRE 10)  -2.51097626  6.70857912 -0.00011191  CHARGE =  1.0
  B   11    (CENTRE 11)  -5.51369508  2.37201812 -0.00048269  CHARGE =  5.0
  H   12    (CENTRE 12)  -6.67376964  4.29944998 -0.00108463  CHARGE =  1.0
  B   13    (CENTRE 13)  -1.41273745  0.00000614  0.00011777  CHARGE =  5.0
  N   14    (CENTRE 14)  -6.79186112 -0.00002651 -0.00029767  CHARGE =  7.0
  H   15    (CENTRE 15)  -8.69410350 -0.00003437 -0.00084346  CHARGE =  1.0
  N   16    (CENTRE 16)  -2.78998208 -2.38273206  0.00012211  CHARGE =  7.0
  N   17    (CENTRE 17)   1.26714494 -4.68173905  0.00046909  CHARGE =  7.0
  H   18    (CENTRE 18)   2.19187675 -6.34492186 -0.00000038  CHARGE =  1.0
  N   19    (CENTRE 19)   5.41226894 -2.30305512 -0.00036201  CHARGE =  7.0
  H   20    (CENTRE 20)   6.38264853 -3.93945147 -0.00140700  CHARGE =  1.0
  N   21    (CENTRE 21)   5.41233004  2.30302986  0.00004411  CHARGE =  7.0
  H   22    (CENTRE 22)   6.38289939  3.93931690 -0.00005720  CHARGE =  1.0
  N   23    (CENTRE 23)   1.26712128  4.68180252  0.00052595  CHARGE =  7.0
  H   24    (CENTRE 24)   2.19165743  6.34509630  0.00080121  CHARGE =  1.0
  N   25    (CENTRE 25)  -2.79000880  2.38271609 -0.00006784  CHARGE =  7.0
  N   26    (CENTRE 26)   1.32121599  0.00004012  0.00038012  CHARGE =  7.0
CENTRE ASSIGNMENTS    1  1  1  1  1  1  1  1  1  1  1  1  1  1  1  1  1  1  1  1
CENTRE ASSIGNMENTS    1  1  1  1  1  1  1  1  2  2  2  2  3  3  3  3  3  3  3  3
CENTRE ASSIGNMENTS    3  3  3  3  3  3  3  3  3  3  3  3  3  3  3  3  3  3  3  3
CENTRE ASSIGNMENTS    4  4  4  4  5  5  5  5  5  5  5  5  5  5  5  5  5  5  5  5
CENTRE ASSIGNMENTS    5  5  5  5  5  5  5  5  5  5  5  5  6  6  6  6  6  6  6  6
CENTRE ASSIGNMENTS    6  6  6  6  6  6  6  6  6  6  6  6  6  6  6  6  6  6  6  6
CENTRE ASSIGNMENTS    7  7  7  7  8  8  8  8  8  8  8  8  8  8  8  8  8  8  8  8
CENTRE ASSIGNMENTS    8  8  8  8  8  8  8  8  8  8  8  8  9  9  9  9  9  9  9  9
CENTRE ASSIGNMENTS    9  9  9  9  9  9  9  9  9  9  9  9  9  9  9  9  9  9  9  9
CENTRE ASSIGNMENTS   10 10 10 10 11 11 11 11 11 11 11 11 11 11 11 11 11 11 11 11
CENTRE ASSIGNMENTS   11 11 11 11 11 11 11 11 11 11 11 11 12 12 12 12 13 13 13 13
CENTRE ASSIGNMENTS   13 13 13 13 13 13 13 13 13 13 13 13 13 13 13 13 13 13 13 13
CENTRE ASSIGNMENTS   13 13 13 13 14 14 14 14 14 14 14 14 14 14 14 14 14 14 14 14
CENTRE ASSIGNMENTS   14 14 14 14 14 14 14 14 14 14 14 14 15 15 15 15 16 16 16 16
CENTRE ASSIGNMENTS   16 16 16 16 16 16 16 16 16 16 16 16 16 16 16 16 16 16 16 16
CENTRE ASSIGNMENTS   16 16 16 16 17 17 17 17 17 17 17 17 17 17 17 17 17 17 17 17
CENTRE ASSIGNMENTS   17 17 17 17 17 17 17 17 17 17 17 17 18 18 18 18 19 19 19 19
CENTRE ASSIGNMENTS   19 19 19 19 19 19 19 19 19 19 19 19 19 19 19 19 19 19 19 19
CENTRE ASSIGNMENTS   19 19 19 19 20 20 20 20 21 21 21 21 21 21 21 21 21 21 21 21
CENTRE ASSIGNMENTS   21 21 21 21 21 21 21 21 21 21 21 21 21 21 21 21 22 22 22 22
CENTRE ASSIGNMENTS   23 23 23 23 23 23 23 23 23 23 23 23 23 23 23 23 23 23 23 23
CENTRE ASSIGNMENTS   23 23 23 23 23 23 23 23 24 24 24 24 25 25 25 25 25 25 25 25
CENTRE ASSIGNMENTS   25 25 25 25 25 25 25 25 25 25 25 25 25 25 25 25 25 25 25 25
CENTRE ASSIGNMENTS   26 26 26 26 26 26 26 26 26 26 26 26 26 26 26 26 26 26 26 26
CENTRE ASSIGNMENTS   26 26 26 26 26 26 26 26
TYPE ASSIGNMENTS      1  1  1  1  1  1  1  1  1  2  2  2  3  3  3  4  4  4  1  2
TYPE ASSIGNMENTS      3  4  5  6  7  8  9 10  1  1  1  1  1  1  1  1  1  1  1  1
TYPE ASSIGNMENTS      1  2  2  2  3  3  3  4  4  4  1  2  3  4  5  6  7  8  9 10
TYPE ASSIGNMENTS      1  1  1  1  1  1  1  1  1  1  1  1  1  2  2  2  3  3  3  4
TYPE ASSIGNMENTS      4  4  1  2  3  4  5  6  7  8  9 10  1  1  1  1  1  1  1  1
TYPE ASSIGNMENTS      1  2  2  2  3  3  3  4  4  4  1  2  3  4  5  6  7  8  9 10
TYPE ASSIGNMENTS      1  1  1  1  1  1  1  1  1  1  1  1  1  2  2  2  3  3  3  4
TYPE ASSIGNMENTS      4  4  1  2  3  4  5  6  7  8  9 10  1  1  1  1  1  1  1  1
TYPE ASSIGNMENTS      1  2  2  2  3  3  3  4  4  4  1  2  3  4  5  6  7  8  9 10
TYPE ASSIGNMENTS      1  1  1  1  1  1  1  1  1  1  1  1  1  2  2  2  3  3  3  4
TYPE ASSIGNMENTS      4  4  1  2  3  4  5  6  7  8  9 10  1  1  1  1  1  1  1  1
TYPE ASSIGNMENTS      1  1  1  1  1  2  2  2  3  3  3  4  4  4  1  2  3  4  5  6
TYPE ASSIGNMENTS      7  8  9 10  1  1  1  1  1  1  1  1  1  2  2  2  3  3  3  4
TYPE ASSIGNMENTS      4  4  1  2  3  4  5  6  7  8  9 10  1  1  1  1  1  1  1  1
TYPE ASSIGNMENTS      1  1  1  1  1  2  2  2  3  3  3  4  4  4  1  2  3  4  5  6
TYPE ASSIGNMENTS      7  8  9 10  1  1  1  1  1  1  1  1  1  2  2  2  3  3  3  4
TYPE ASSIGNMENTS      4  4  1  2  3  4  5  6  7  8  9 10  1  1  1  1  1  1  1  1
TYPE ASSIGNMENTS      1  1  1  1  1  2  2  2  3  3  3  4  4  4  1  2  3  4  5  6
TYPE ASSIGNMENTS      7  8  9 10  1  1  1  1  1  1  1  1  1  1  1  1  1  2  2  2
TYPE ASSIGNMENTS      3  3  3  4  4  4  1  2  3  4  5  6  7  8  9 10  1  1  1  1
TYPE ASSIGNMENTS      1  1  1  1  1  1  1  1  1  2  2  2  3  3  3  4  4  4  1  2
TYPE ASSIGNMENTS      3  4  5  6  7  8  9 10  1  1  1  1  1  1  1  1  1  1  1  1
TYPE ASSIGNMENTS      1  2  2  2  3  3  3  4  4  4  1  2  3  4  5  6  7  8  9 10
TYPE ASSIGNMENTS      1  1  1  1  1  1  1  1  1  2  2  2  3  3  3  4  4  4  1  2
TYPE ASSIGNMENTS      3  4  5  6  7  8  9 10
EXPONENTS  0.2068882D+04 0.3106496D+03 0.7068303D+02 0.1986108D+02 0.6299305D+01
EXPONENTS  0.2127027D+01 0.4727971D+01 0.1190338D+01 0.3594117D+00 0.4727971D+01
EXPONENTS  0.1190338D+01 0.3594117D+00 0.4727971D+01 0.1190338D+01 0.3594117D+00
EXPONENTS  0.4727971D+01 0.1190338D+01 0.3594117D+00 0.1267512D+00 0.1267512D+00
EXPONENTS  0.1267512D+00 0.1267512D+00 0.6000000D+00 0.6000000D+00 0.6000000D+00
EXPONENTS  0.6000000D+00 0.6000000D+00 0.6000000D+00 0.1873114D+02 0.2825394D+01
EXPONENTS  0.6401217D+00 0.1612778D+00 0.2068882D+04 0.3106496D+03 0.7068303D+02
EXPONENTS  0.1986108D+02 0.6299305D+01 0.2127027D+01 0.4727971D+01 0.1190338D+01
EXPONENTS  0.3594117D+00 0.4727971D+01 0.1190338D+01 0.3594117D+00 0.4727971D+01
EXPONENTS  0.1190338D+01 0.3594117D+00 0.4727971D+01 0.1190338D+01 0.3594117D+00
EXPONENTS  0.1267512D+00 0.1267512D+00 0.1267512D+00 0.1267512D+00 0.6000000D+00
EXPONENTS  0.6000000D+00 0.6000000D+00 0.6000000D+00 0.6000000D+00 0.6000000D+00
EXPONENTS  0.1873114D+02 0.2825394D+01 0.6401217D+00 0.1612778D+00 0.2068882D+04
EXPONENTS  0.3106496D+03 0.7068303D+02 0.1986108D+02 0.6299305D+01 0.2127027D+01
EXPONENTS  0.4727971D+01 0.1190338D+01 0.3594117D+00 0.4727971D+01 0.1190338D+01
EXPONENTS  0.3594117D+00 0.4727971D+01 0.1190338D+01 0.3594117D+00 0.4727971D+01
EXPONENTS  0.1190338D+01 0.3594117D+00 0.1267512D+00 0.1267512D+00 0.1267512D+00
EXPONENTS  0.1267512D+00 0.6000000D+00 0.6000000D+00 0.6000000D+00 0.6000000D+00
EXPONENTS  0.6000000D+00 0.6000000D+00 0.2068882D+04 0.3106496D+03 0.7068303D+02
EXPONENTS  0.1986108D+02 0.6299305D+01 0.2127027D+01 0.4727971D+01 0.1190338D+01
EXPONENTS  0.3594117D+00 0.4727971D+01 0.1190338D+01 0.3594117D+00 0.4727971D+01
EXPONENTS  0.1190338D+01 0.3594117D+00 0.4727971D+01 0.1190338D+01 0.3594117D+00
EXPONENTS  0.1267512D+00 0.1267512D+00 0.1267512D+00 0.1267512D+00 0.6000000D+00
EXPONENTS  0.6000000D+00 0.6000000D+00 0.6000000D+00 0.6000000D+00 0.6000000D+00
EXPONENTS  0.1873114D+02 0.2825394D+01 0.6401217D+00 0.1612778D+00 0.2068882D+04
EXPONENTS  0.3106496D+03 0.7068303D+02 0.1986108D+02 0.6299305D+01 0.2127027D+01
EXPONENTS  0.4727971D+01 0.1190338D+01 0.3594117D+00 0.4727971D+01 0.1190338D+01
EXPONENTS  0.3594117D+00 0.4727971D+01 0.1190338D+01 0.3594117D+00 0.4727971D+01
EXPONENTS  0.1190338D+01 0.3594117D+00 0.1267512D+00 0.1267512D+00 0.1267512D+00
EXPONENTS  0.1267512D+00 0.6000000D+00 0.6000000D+00 0.6000000D+00 0.6000000D+00
EXPONENTS  0.6000000D+00 0.6000000D+00 0.2068882D+04 0.3106496D+03 0.7068303D+02
EXPONENTS  0.1986108D+02 0.6299305D+01 0.2127027D+01 0.4727971D+01 0.1190338D+01
EXPONENTS  0.3594117D+00 0.4727971D+01 0.1190338D+01 0.3594117D+00 0.4727971D+01
EXPONENTS  0.1190338D+01 0.3594117D+00 0.4727971D+01 0.1190338D+01 0.3594117D+00
EXPONENTS  0.1267512D+00 0.1267512D+00 0.1267512D+00 0.1267512D+00 0.6000000D+00
EXPONENTS  0.6000000D+00 0.6000000D+00 0.6000000D+00 0.6000000D+00 0.6000000D+00
EXPONENTS  0.1873114D+02 0.2825394D+01 0.6401217D+00 0.1612778D+00 0.2068882D+04
EXPONENTS  0.3106496D+03 0.7068303D+02 0.1986108D+02 0.6299305D+01 0.2127027D+01
EXPONENTS  0.4727971D+01 0.1190338D+01 0.3594117D+00 0.4727971D+01 0.1190338D+01
EXPONENTS  0.3594117D+00 0.4727971D+01 0.1190338D+01 0.3594117D+00 0.4727971D+01
EXPONENTS  0.1190338D+01 0.3594117D+00 0.1267512D+00 0.1267512D+00 0.1267512D+00
EXPONENTS  0.1267512D+00 0.6000000D+00 0.6000000D+00 0.6000000D+00 0.6000000D+00
EXPONENTS  0.6000000D+00 0.6000000D+00 0.1873114D+02 0.2825394D+01 0.6401217D+00
EXPONENTS  0.1612778D+00 0.2068882D+04 0.3106496D+03 0.7068303D+02 0.1986108D+02
EXPONENTS  0.6299305D+01 0.2127027D+01 0.4727971D+01 0.1190338D+01 0.3594117D+00
EXPONENTS  0.4727971D+01 0.1190338D+01 0.3594117D+00 0.4727971D+01 0.1190338D+01
EXPONENTS  0.3594117D+00 0.4727971D+01 0.1190338D+01 0.3594117D+00 0.1267512D+00
EXPONENTS  0.1267512D+00 0.1267512D+00 0.1267512D+00 0.6000000D+00 0.6000000D+00
EXPONENTS  0.6000000D+00 0.6000000D+00 0.6000000D+00 0.6000000D+00 0.4173511D+04
EXPONENTS  0.6274579D+03 0.1429021D+03 0.4023433D+02 0.1282021D+02 0.4390437D+01
EXPONENTS  0.1162636D+02 0.2716280D+01 0.7722184D+00 0.1162636D+02 0.2716280D+01
EXPONENTS  0.7722184D+00 0.1162636D+02 0.2716280D+01 0.7722184D+00 0.1162636D+02
EXPONENTS  0.2716280D+01 0.7722184D+00 0.2120315D+00 0.2120315D+00 0.2120315D+00
EXPONENTS  0.2120315D+00 0.8000000D+00 0.8000000D+00 0.8000000D+00 0.8000000D+00
EXPONENTS  0.8000000D+00 0.8000000D+00 0.1873114D+02 0.2825394D+01 0.6401217D+00
EXPONENTS  0.1612778D+00 0.4173511D+04 0.6274579D+03 0.1429021D+03 0.4023433D+02
EXPONENTS  0.1282021D+02 0.4390437D+01 0.1162636D+02 0.2716280D+01 0.7722184D+00
EXPONENTS  0.1162636D+02 0.2716280D+01 0.7722184D+00 0.1162636D+02 0.2716280D+01
EXPONENTS  0.7722184D+00 0.1162636D+02 0.2716280D+01 0.7722184D+00 0.2120315D+00
EXPONENTS  0.2120315D+00 0.2120315D+00 0.2120315D+00 0.8000000D+00 0.8000000D+00
EXPONENTS  0.8000000D+00 0.8000000D+00 0.8000000D+00 0.8000000D+00 0.4173511D+04
EXPONENTS  0.6274579D+03 0.1429021D+03 0.4023433D+02 0.1282021D+02 0.4390437D+01
EXPONENTS  0.1162636D+02 0.2716280D+01 0.7722184D+00 0.1162636D+02 0.2716280D+01
EXPONENTS  0.7722184D+00 0.1162636D+02 0.2716280D+01 0.7722184D+00 0.1162636D+02
EXPONENTS  0.2716280D+01 0.7722184D+00 0.2120315D+00 0.2120315D+00 0.2120315D+00
EXPONENTS  0.2120315D+00 0.8000000D+00 0.8000000D+00 0.8000000D+00 0.8000000D+00
EXPONENTS  0.8000000D+00 0.8000000D+00 0.1873114D+02 0.2825394D+01 0.6401217D+00
EXPONENTS  0.1612778D+00 0.4173511D+04 0.6274579D+03 0.1429021D+03 0.4023433D+02
EXPONENTS  0.1282021D+02 0.4390437D+01 0.1162636D+02 0.2716280D+01 0.7722184D+00
EXPONENTS  0.1162636D+02 0.2716280D+01 0.7722184D+00 0.1162636D+02 0.2716280D+01
EXPONENTS  0.7722184D+00 0.1162636D+02 0.2716280D+01 0.7722184D+00 0.2120315D+00
EXPONENTS  0.2120315D+00 0.2120315D+00 0.2120315D+00 0.8000000D+00 0.8000000D+00
EXPONENTS  0.8000000D+00 0.8000000D+00 0.8000000D+00 0.8000000D+00 0.1873114D+02
EXPONENTS  0.2825394D+01 0.6401217D+00 0.1612778D+00 0.4173511D+04 0.6274579D+03
EXPONENTS  0.1429021D+03 0.4023433D+02 0.1282021D+02 0.4390437D+01 0.1162636D+02
EXPONENTS  0.2716280D+01 0.7722184D+00 0.1162636D+02 0.2716280D+01 0.7722184D+00
EXPONENTS  0.1162636D+02 0.2716280D+01 0.7722184D+00 0.1162636D+02 0.2716280D+01
EXPONENTS  0.7722184D+00 0.2120315D+00 0.2120315D+00 0.2120315D+00 0.2120315D+00
EXPONENTS  0.8000000D+00 0.8000000D+00 0.8000000D+00 0.8000000D+00 0.8000000D+00
EXPONENTS  0.8000000D+00 0.1873114D+02 0.2825394D+01 0.6401217D+00 0.1612778D+00
EXPONENTS  0.4173511D+04 0.6274579D+03 0.1429021D+03 0.4023433D+02 0.1282021D+02
EXPONENTS  0.4390437D+01 0.1162636D+02 0.2716280D+01 0.7722184D+00 0.1162636D+02
EXPONENTS  0.2716280D+01 0.7722184D+00 0.1162636D+02 0.2716280D+01 0.7722184D+00
EXPONENTS  0.1162636D+02 0.2716280D+01 0.7722184D+00 0.2120315D+00 0.2120315D+00
EXPONENTS  0.2120315D+00 0.2120315D+00 0.8000000D+00 0.8000000D+00 0.8000000D+00
EXPONENTS  0.8000000D+00 0.8000000D+00 0.8000000D+00 0.1873114D+02 0.2825394D+01
EXPONENTS  0.6401217D+00 0.1612778D+00 0.4173511D+04 0.6274579D+03 0.1429021D+03
EXPONENTS  0.4023433D+02 0.1282021D+02 0.4390437D+01 0.1162636D+02 0.2716280D+01
EXPONENTS  0.7722184D+00 0.1162636D+02 0.2716280D+01 0.7722184D+00 0.1162636D+02
EXPONENTS  0.2716280D+01 0.7722184D+00 0.1162636D+02 0.2716280D+01 0.7722184D+00
EXPONENTS  0.2120315D+00 0.2120315D+00 0.2120315D+00 0.2120315D+00 0.8000000D+00
EXPONENTS  0.8000000D+00 0.8000000D+00 0.8000000D+00 0.8000000D+00 0.8000000D+00
EXPONENTS  0.4173511D+04 0.6274579D+03 0.1429021D+03 0.4023433D+02 0.1282021D+02
EXPONENTS  0.4390437D+01 0.1162636D+02 0.2716280D+01 0.7722184D+00 0.1162636D+02
EXPONENTS  0.2716280D+01 0.7722184D+00 0.1162636D+02 0.2716280D+01 0.7722184D+00
EXPONENTS  0.1162636D+02 0.2716280D+01 0.7722184D+00 0.2120315D+00 0.2120315D+00
EXPONENTS  0.2120315D+00 0.2120315D+00 0.8000000D+00 0.8000000D+00 0.8000000D+00
EXPONENTS  0.8000000D+00 0.8000000D+00 0.8000000D+00
MO    1     MO 0.0        OCC NO =    1.0000000  ORB. ENERGY =  -14.184762
  0.15669052D-06  0.28862135D-06  0.46404381D-06  0.59886190D-06  0.50830561D-06
  0.17519334D-06 -0.53555076D-06 -0.19092435D-06  0.67247018D-06  0.14153757D-05
  0.10416593D-05  0.56305325D-06  0.22010372D-06  0.16198744D-06  0.87559873D-07
 -0.49290216D-09 -0.36275607D-09 -0.19608233D-09  0.16152543D-06  0.56171061D-06
 -0.23909312D-06  0.46078718D-09  0.56136115D-06  0.38247334D-06  0.19080076D-06
  0.24537119D-06  0.51476913D-09  0.41956397D-09 -0.14691166D-06 -0.24918998D-06
 -0.28369399D-06  0.45158028D-06 -0.51408050D-06 -0.94692775D-06 -0.15224652D-05
 -0.19647852D-05 -0.16676822D-05 -0.57478576D-06  0.19208632D-05  0.68478954D-06
 -0.24119530D-05 -0.20114302D-05 -0.14803313D-05 -0.80017080D-06  0.23492066D-06
  0.17289211D-06  0.93454227D-07  0.31251638D-08  0.22999943D-08  0.12432273D-08
  0.76032668D-05  0.29156206D-05  0.14221714D-05 -0.51904511D-09 -0.39808588D-05
 -0.57189398D-06 -0.18702511D-06  0.20676699D-05  0.24569506D-08 -0.17319869D-08
 -0.93881651D-07 -0.15924105D-06 -0.18129031D-06  0.69161053D-06  0.40274599D-07
  0.74185143D-07  0.11927446D-06  0.15392713D-06  0.13065120D-06  0.45030430D-07
  0.16259957D-04  0.57966898D-05 -0.20416993D-04 -0.13282350D-03 -0.97752731D-04
 -0.52838767D-04  0.99221909D-05  0.73023316D-05  0.39471654D-05  0.15732283D-07
  0.11578325D-07  0.62584890D-08  0.55809885D-04  0.39447188D-04  0.16663854D-04
  0.28276353D-08 -0.10469401D-03  0.26206178D-05  0.19774858D-04  0.13186135D-05
  0.41119280D-07 -0.10752412D-08  0.80306625D-06  0.14792347D-05  0.23783054D-05
  0.30692716D-05  0.26051549D-05  0.89789643D-06 -0.18959983D-04 -0.67592518D-05
  0.23807311D-04 -0.71038867D-04 -0.52281736D-04 -0.28260105D-04  0.34972217D-03
  0.25738139D-03  0.13912363D-03  0.74557141D-07  0.54871044D-07  0.29659716D-07
 -0.28812851D-04  0.38793379D-05 -0.36803408D-04 -0.53768948D-08  0.12709082D-04
  0.61387398D-04 -0.15413478D-04 -0.26609554D-03 -0.61821105D-07  0.18062872D-06
  0.10919884D-05  0.18522191D-05  0.21086860D-05  0.34326457D-05  0.18473177D-05
  0.34027286D-05  0.54708882D-05  0.70603388D-05  0.59927169D-05  0.20654584D-05
 -0.37858055D-04 -0.13496432D-04  0.47536881D-04  0.25369538D-03  0.18670955D-03
  0.10092303D-03  0.12549240D-05  0.92357339D-06  0.49922369D-06 -0.28325580D-07
 -0.20846483D-07 -0.11268252D-07 -0.74222320D-04 -0.58736198D-04  0.16343686D-04
  0.13519154D-08  0.19501307D-03  0.16928813D-05 -0.32818938D-04 -0.15989754D-05
 -0.56364366D-07  0.30385712D-08  0.87470379D-06  0.16111899D-05  0.25904622D-05
  0.33430660D-05  0.28375477D-05  0.97799329D-06 -0.27623882D-05 -0.98479396D-06
  0.34686230D-05  0.30944605D-05  0.22773979D-05  0.12310131D-05 -0.28853396D-05
 -0.21234933D-05 -0.11478224D-05  0.12072374D-08  0.88847797D-09  0.48025339D-09
 -0.89563392D-05 -0.40822694D-05 -0.14919146D-05 -0.14077847D-08  0.75197965D-05
  0.27611573D-05  0.34360491D-06  0.22347077D-05  0.30221786D-08  0.21686806D-08
  0.11091693D-06  0.18813611D-06  0.21418631D-06  0.16892745D-05 -0.37760141D-06
 -0.69553553D-06 -0.11182782D-05 -0.14431702D-05 -0.12249427D-05 -0.42219052D-06
  0.12919014D-05  0.46056406D-06 -0.16221902D-05 -0.44056465D-05 -0.32423778D-05
 -0.17526185D-05  0.23106880D-06  0.17005730D-06  0.91921914D-07 -0.16222218D-08
 -0.11938897D-08 -0.64533909D-09 -0.95412408D-06 -0.10459025D-05 -0.10074375D-05
  0.76029168D-10 -0.20579131D-05 -0.29849688D-06 -0.53512707D-06  0.79257002D-06
 -0.17021539D-08 -0.39682060D-09  0.25611070D-06  0.43441222D-06  0.49456295D-06
 -0.79760326D-07  0.10707054D-06  0.19722215D-06  0.31709269D-06  0.40921724D-06
  0.34733788D-06  0.11971397D-06 -0.12039704D-06 -0.42921656D-07  0.15117786D-06
 -0.79640161D-06 -0.58611941D-06 -0.31681802D-06  0.38179925D-05  0.28098882D-05
  0.15188428D-05  0.21568965D-08  0.15873887D-08  0.85803904D-09 -0.46473744D-05
 -0.58201909D-06 -0.26644088D-05 -0.17984851D-08  0.27437223D-05  0.62988612D-06
 -0.16109423D-06 -0.17607140D-05  0.44468780D-09 -0.72530303D-09  0.13572906D-06
  0.24995641D-06  0.40386147D-06  0.52856784D-06  0.45276573D-06  0.15575666D-06
 -0.51564963D-06 -0.25491183D-06  0.67244106D-06  0.93364195D-06  0.72685517D-06
  0.34513655D-06  0.12148566D-05  0.94578524D-06  0.44909229D-06  0.54966149D-09
  0.42792025D-09  0.20319167D-09 -0.15061632D-05 -0.74189196D-06 -0.10336441D-05
 -0.32404363D-09  0.47169540D-06  0.56665611D-06  0.89788154D-06 -0.25922222D-06
 -0.22455086D-10  0.10780418D-09 -0.41276473D-07 -0.70012710D-07 -0.79706996D-07
 -0.35181141D-06 -0.67703665D-06 -0.12468196D-05 -0.20145207D-05 -0.26365746D-05
 -0.22584624D-05 -0.77693724D-06  0.30779843D-06  0.15216041D-06 -0.40138942D-06
 -0.15628711D-05 -0.12167201D-05 -0.57774176D-06  0.16688055D-06  0.12991918D-06
  0.61690220D-07  0.24809515D-09  0.19314604D-09  0.91712570D-10 -0.11226115D-05
  0.21605621D-05 -0.90262060D-07  0.48714593D-09 -0.73003325D-06  0.91374883D-06
 -0.96706024D-06 -0.74485198D-07 -0.10445278D-08 -0.78120542D-09  0.26257812D-04
  0.48355954D-04  0.78130048D-04  0.10225544D-03  0.87590947D-04  0.30132300D-04
  0.13412758D-04  0.66306080D-05 -0.17491119D-04 -0.92262735D-05 -0.71828012D-05
 -0.34106481D-05  0.17962057D-05  0.13983748D-05  0.66399782D-06  0.79938845D-08
  0.62233667D-08  0.29550747D-08  0.25720038D-04  0.69116878D-05  0.75693718D-05
 -0.77143298D-08  0.12134868D-04  0.72223796D-05 -0.15608926D-04  0.13107023D-04
 -0.11807498D-07 -0.13175749D-07 -0.19827197D-05 -0.33630679D-05 -0.38287340D-05
 -0.10563920D-05 -0.32582376D+00 -0.60003168D+00 -0.96948772D+00 -0.12688510D+01
 -0.10868846D+01 -0.37390090D+00  0.86666607D-02  0.42843710D-02 -0.11301896D-01
 -0.27603074D-03 -0.21489434D-03 -0.10203943D-03  0.41873020D-03  0.32598815D-03
  0.15479070D-03  0.63954191D-06  0.49789359D-06  0.23641749D-06 -0.53293529D-03
  0.28540038D-04 -0.36675511D-04 -0.35969469D-07  0.46587716D-02  0.45664823D-02
  0.46075815D-02  0.95344059D-04  0.12194910D-07 -0.66891581D-07 -0.28188471D-04
 -0.47812983D-04 -0.54433391D-04  0.17578243D-04  0.58994879D+00  0.10864400D+01
  0.17553910D+01  0.22974295D+01  0.19679543D+01  0.67699907D+00 -0.15729453D-01
 -0.77758682D-02  0.20512242D-01  0.48756387D-03  0.37957626D-03  0.18023623D-03
  0.74325416D-03  0.57863523D-03  0.27475648D-03 -0.38417953D-06 -0.29908990D-06
 -0.14201846D-06  0.92309957D-03 -0.35155995D-04 -0.36185787D-04  0.20351693D-07
 -0.84410256D-02 -0.83223358D-02 -0.83028837D-02  0.17197905D-03  0.63490095D-07
 -0.87732272D-07  0.51361033D-04  0.87118033D-04  0.99180802D-04 -0.48531040D-04
 -0.43671455D-04 -0.80424633D-04 -0.12994430D-03 -0.17006915D-03 -0.14567947D-03
 -0.50115425D-04 -0.26853703D-04 -0.13275151D-04  0.35018996D-04  0.18960585D-04
  0.14761118D-04  0.70091011D-05 -0.31812152D-05 -0.24766268D-05 -0.11759900D-05
 -0.26489682D-08 -0.20622640D-08 -0.97923591D-09 -0.44962881D-04 -0.13014381D-04
  0.17185119D-04  0.23439689D-08 -0.18943022D-04 -0.13067097D-04  0.35995367D-04
  0.29641374D-04  0.11325446D-07 -0.74651273D-08  0.28415863D-05  0.48198682D-05
  0.54872496D-05  0.38896390D-05  0.15733849D-05  0.28975197D-05  0.46816024D-05
  0.61272111D-05  0.52485055D-05  0.18055467D-05 -0.26367003D-05 -0.13034550D-05
  0.34384308D-05  0.69379528D-05  0.54013070D-05  0.25647316D-05  0.99658760D-06
  0.77585936D-06  0.36840547D-06 -0.24591244D-08 -0.19144676D-08 -0.90905694D-09
 -0.37119751D-05 -0.76341061D-05 -0.21594692D-05  0.90213001D-09  0.30958265D-05
 -0.13611881D-05  0.52537723D-05 -0.18741542D-05  0.67125067D-09 -0.42330681D-09
 -0.49637970D-05 -0.91412469D-05 -0.14769765D-04 -0.19330447D-04 -0.16558260D-04
 -0.56962333D-05 -0.12751764D-04 -0.63038455D-05  0.16629140D-04  0.10504140D-04
  0.81776405D-05  0.38830330D-05  0.10684371D-04  0.83179535D-05  0.39496586D-05
  0.15335855D-08  0.11939208D-08  0.56691582D-09 -0.14572078D-04 -0.86097818D-05
 -0.19174424D-04 -0.10716617D-08 -0.13059678D-04 -0.78028264D-05  0.15453243D-04
 -0.49940293D-04  0.17232303D-08  0.10180165D-07
MO    2     MO 0.0        OCC NO =    1.0000000  ORB. ENERGY =  -14.184759
 -0.46014809D-06 -0.84758516D-06 -0.13627427D-05 -0.17586587D-05 -0.14927250D-05
 -0.51448474D-06  0.15754290D-05  0.56164189D-06 -0.19782046D-05 -0.60244498D-05
 -0.44337516D-05 -0.23965977D-05 -0.84133256D-07 -0.61918677D-07 -0.33469208D-07
 -0.76249070D-09 -0.56116234D-09 -0.30332786D-09 -0.15345223D-05 -0.10709267D-05
  0.15116538D-05 -0.43196759D-09 -0.29723853D-05  0.47819702D-07 -0.70179335D-06
 -0.10996416D-05 -0.18114129D-08  0.14332490D-09  0.24738994D-06  0.41962016D-06
  0.47772272D-06  0.56807061D-06  0.82497754D-06  0.15195949D-05  0.24431964D-05
  0.31530153D-05  0.26762353D-05  0.92239511D-06 -0.21317816D-05 -0.75998213D-06
  0.26767949D-05  0.26179156D-05  0.19266801D-05  0.10414379D-05  0.57921156D-05
  0.42627630D-05  0.23041724D-05 -0.76780789D-08 -0.56507558D-08 -0.30544310D-08
 -0.47305742D-05 -0.30303988D-05  0.50632580D-05  0.14331758D-09  0.78040811D-05
  0.42750542D-05  0.34578661D-06 -0.91488916D-06 -0.34637995D-08 -0.90978327D-09
  0.59311431D-07  0.10060341D-06  0.11453343D-06  0.42724203D-05  0.35380298D-05
  0.65169922D-05  0.10477984D-04  0.13522140D-04  0.11477404D-04  0.39558185D-05
 -0.45268732D-04 -0.16138345D-04  0.56842178D-04  0.26531581D-03  0.19526171D-03
  0.10554578D-03  0.13395471D-04  0.98585255D-05  0.53288775D-05 -0.27593055D-07
 -0.20307374D-07 -0.10976845D-07 -0.50670043D-04 -0.47583010D-04 -0.42061825D-05
 -0.86734599D-08  0.19977907D-03  0.73589692D-05 -0.30201647D-04  0.50759321D-05
 -0.67428519D-07 -0.34649906D-08  0.27845210D-05  0.51290416D-05  0.82464448D-05
  0.10642274D-04  0.90330138D-05  0.31133316D-05 -0.65734250D-04 -0.23434321D-04
  0.82539931D-04 -0.24633114D-03 -0.18128977D-03 -0.97993454D-04 -0.10086094D-03
 -0.74229577D-04 -0.40123680D-04  0.13995135D-06  0.10299854D-06  0.55674307D-07
 -0.99922405D-04  0.13451033D-04  0.10618461D-04 -0.26076323D-07  0.44083167D-04
  0.21283745D-03 -0.53441100D-04  0.76754626D-04 -0.10444172D-06 -0.18356310D-08
  0.37877234D-05  0.64246959D-05  0.73142891D-05  0.11907322D-04  0.30146475D-05
  0.55529307D-05  0.89279714D-05  0.11521804D-04  0.97795463D-05  0.33706325D-05
 -0.29649009D-04 -0.10569899D-04  0.37229103D-04  0.15382277D-03  0.11320734D-03
  0.61192524D-04 -0.16629687D-04 -0.12238778D-04 -0.66154872D-05 -0.24319742D-07
 -0.17898347D-07 -0.96746821D-08 -0.13165787D-04 -0.19274638D-04 -0.53170596D-05
 -0.47074672D-08  0.11335090D-03  0.76236633D-05 -0.15030595D-04 -0.50084662D-05
 -0.29492594D-07  0.60228360D-08  0.42474000D-06  0.78236404D-06  0.12578806D-05
  0.16233311D-05  0.13778608D-05  0.47489548D-06 -0.78242688D-06 -0.27893591D-06
  0.98246288D-06  0.11443537D-05  0.84219807D-06  0.45523748D-06 -0.50275066D-05
 -0.37000417D-05 -0.20000018D-05 -0.39787399D-09 -0.29281918D-09 -0.15827900D-09
  0.45684313D-07 -0.10125217D-05 -0.50434720D-05 -0.67784238D-09  0.44834565D-05
  0.33142153D-05  0.19368343D-06 -0.32796432D-06 -0.18624707D-09  0.56620539D-09
  0.11512610D-09  0.19527565D-09  0.22231442D-09  0.39846930D-05 -0.30609524D-06
 -0.56382236D-06 -0.90651048D-06 -0.11698779D-05 -0.99297599D-06 -0.34224054D-06
  0.10484421D-05  0.37377057D-06 -0.13164878D-05 -0.43455072D-05 -0.31981177D-05
 -0.17286944D-05 -0.45537609D-07 -0.33513840D-07 -0.18115402D-07 -0.13175644D-08
 -0.96967415D-09 -0.52414276D-09 -0.12116502D-05 -0.60692687D-06 -0.11526336D-05
  0.23144446D-09 -0.22168029D-05  0.24399584D-06 -0.49275081D-06  0.80066193D-06
 -0.52893906D-09 -0.62346325D-10  0.13117256D-06  0.22249348D-06  0.25330097D-06
  0.72158837D-06  0.36983098D-06  0.68122253D-06  0.10952658D-05  0.14134721D-05
  0.11997354D-05  0.41350252D-06 -0.41258206D-06 -0.14708589D-06  0.51806318D-06
 -0.27689497D-05 -0.20378351D-05 -0.11015211D-05 -0.11009933D-05 -0.81028660D-06
 -0.43798822D-06 -0.59834640D-08 -0.44035877D-08 -0.23802930D-08 -0.16113781D-04
 -0.20145844D-05  0.76516349D-06 -0.10515934D-08  0.95095705D-05  0.21815232D-05
 -0.56157246D-06  0.51118290D-06 -0.44338915D-08 -0.11882858D-08  0.47058815D-06
  0.86662739D-06  0.14002338D-05  0.18326050D-05  0.15697904D-05  0.54002609D-06
 -0.17880969D-05 -0.88394723D-06  0.23317961D-05  0.32377363D-05  0.25206294D-05
  0.11968840D-05 -0.35028890D-06 -0.27270551D-06 -0.12949022D-06  0.12638158D-09
  0.98390079D-10  0.46719090D-10 -0.52228694D-05 -0.25730081D-05  0.29793127D-06
 -0.12196772D-09  0.16357755D-05  0.19640905D-05  0.31135914D-05  0.74739707D-07
  0.38700941D-09 -0.78584425D-11 -0.14324620D-06 -0.24297267D-06 -0.27661580D-06
 -0.12198281D-05  0.18792865D-05  0.34608632D-05  0.55918120D-05  0.73184799D-05
  0.62689339D-05  0.21565859D-05 -0.44636977D-05 -0.22066327D-05  0.58209557D-05
  0.10546861D-04  0.82108998D-05  0.38988257D-05 -0.16070173D-05 -0.12510886D-05
 -0.59406112D-06 -0.18742661D-08 -0.14591461D-08 -0.69285418D-09 -0.87600330D-05
 -0.10904305D-04  0.39137560D-05 -0.40945250D-09  0.46555123D-05 -0.11037016D-05
  0.83311422D-05  0.34013239D-05  0.69976444D-09  0.38876030D-08 -0.40288120D-04
 -0.74193939D-04 -0.11987719D-03 -0.15689347D-03 -0.13439332D-03 -0.46232860D-04
 -0.29111549D-04 -0.14391319D-04  0.37963377D-04  0.20925893D-04  0.16291142D-04
  0.77356104D-05  0.88124743D-05  0.68606519D-05  0.32576802D-05 -0.12749559D-07
 -0.99257353D-08 -0.47130902D-08 -0.43549609D-04 -0.13458915D-04 -0.20233269D-04
  0.12954405D-07 -0.16329426D-04 -0.13063328D-04  0.42774725D-04 -0.34852343D-04
  0.21090534D-07  0.25744853D-07  0.21866801D-05  0.37090233D-05  0.42225920D-05
  0.56286423D-05  0.58995371D+00  0.10864491D+01  0.17554057D+01  0.22974487D+01
  0.19679707D+01  0.67700472D+00 -0.15762352D-01 -0.77921322D-02  0.20555145D-01
  0.47663774D-03  0.37107009D-03  0.17619721D-03 -0.73029082D-03 -0.56854307D-03
 -0.26996436D-03 -0.11542487D-05 -0.89860103D-06 -0.42668755D-06  0.88636926D-03
 -0.20623506D-04  0.96713363D-05  0.61078999D-07 -0.84461468D-02 -0.83699218D-02
 -0.82680827D-02 -0.17138299D-03  0.62557881D-07  0.10705376D-06  0.51644464D-04
  0.87598786D-04  0.99728122D-04 -0.63198811D-04  0.32583270D+00  0.60004813D+00
  0.96951431D+00  0.12688858D+01  0.10869144D+01  0.37391115D+00 -0.87261652D-02
 -0.43137871D-02  0.11379494D-01  0.25649686D-03  0.19968690D-03  0.94818404D-04
  0.39510160D-03  0.30759291D-03  0.14605599D-03 -0.23378574D-06 -0.18200593D-06
 -0.86422854D-07  0.46642699D-03 -0.22672634D-05  0.11349674D-04  0.27194910D-07
 -0.46679603D-02 -0.46525975D-02 -0.45445105D-02  0.94290314D-04  0.87679045D-07
 -0.78202729D-07  0.28700998D-04  0.48682325D-04  0.55423106D-04 -0.44130714D-04
 -0.20112876D-04 -0.37039541D-04 -0.59845808D-04 -0.78325297D-04 -0.67092636D-04
 -0.23080644D-04 -0.17496254D-04 -0.86492880D-05  0.22816267D-04  0.12800591D-04
  0.99654647D-05  0.47319551D-05 -0.84199305D-05 -0.65550504D-05 -0.31125698D-05
 -0.46315569D-08 -0.36057410D-08 -0.17121334D-08 -0.23163862D-04 -0.77070638D-05
  0.13098106D-04  0.42432159D-08 -0.73474340D-05 -0.72108167D-05  0.27894854D-04
  0.22514964D-04  0.73225508D-08 -0.90434077D-08  0.79371071D-06  0.13462836D-05
  0.15326963D-05  0.42000113D-05  0.12294571D-05  0.22641479D-05  0.36582462D-05
  0.47878579D-05  0.41012293D-05  0.14108704D-05 -0.36124430D-05 -0.17858142D-05
  0.47108635D-05  0.80940320D-05  0.63013332D-05  0.29920959D-05  0.12716368D-05
  0.98998954D-06  0.47008205D-06  0.83557569D-09  0.65050901D-09  0.30888469D-09
 -0.80058567D-05 -0.80768897D-05 -0.32668858D-05 -0.60664605D-09  0.35492778D-05
 -0.44748314D-06  0.65344629D-05 -0.28412296D-05  0.42930991D-10 -0.63474537D-09
 -0.17216824D-04 -0.31706220D-04 -0.51228614D-04 -0.67047243D-04 -0.57431973D-04
 -0.19757264D-04 -0.44208749D-04 -0.21854632D-04  0.57651119D-04  0.36419290D-04
  0.28352999D-04  0.13463007D-04 -0.30763512D-05 -0.23949886D-05 -0.11372253D-05
 -0.26819933D-07 -0.20879746D-07 -0.99144419D-08 -0.50509521D-04 -0.29860560D-04
  0.55263715D-05  0.17945729D-07 -0.45291629D-04 -0.27062810D-04  0.53572500D-04
  0.14409163D-04  0.31663396D-07 -0.21669810D-07
MO    3     MO 0.0        OCC NO =    1.0000000  ORB. ENERGY =  -14.165997