 Generated by Multiwfn
GAUSSIAN            105 MOL ORBITALS    488 PRIMITIVES       26 NUCLEI
  B    1    (CENTRE  1)  -5.51367030 -2.37205526 -0.00026059  CHARGE =  5.0
  H    2    (CENTRE  2)  -6.67372066 -4.29950238 -0.00065528  CHARGE =  1.0
  B    3    (CENTRE  3)  -1.41468761 -4.74389709  0.00060936  CHARGE =  5.0
  H    4    (CENTRE  4)  -2.51092004 -6.70860604  0.00062472  CHARGE =  1.0
  B    5    (CENTRE  5)   2.69809381 -2.37053289  0.00005354  CHARGE =  5.0
  B    6    (CENTRE  6)   6.81180522 -0.00003466 -0.00097268  CHARGE =  5.0
  H    7    (CENTRE  7)   9.06425563 -0.00006074 -0.00119569  CHARGE =  1.0
  B    8    (CENTRE  8)   2.69811930  2.37059155  0.00041599  CHARGE =  5.0
  B    9    (CENTRE  9)  -1.41471822  4.74388086  0.00016584  CHARGE =  5.0
  H   10    (CENTRE 10)  -2.51097626  6.70857912 -0.00011191  CHARGE =  1.0
  B   11    (CENTRE 11)  -5.51369508  2.37201812 -0.00048269  CHARGE =  5.0
  H   12    (CENTRE 12)  -6.67376964  4.29944998 -0.00108463  CHARGE =  1.0
  B   13    (CENTRE 13)  -1.41273745  0.00000614  0.00011777  CHARGE =  5.0
  N   14    (CENTRE 14)  -6.79186112 -0.00002651 -0.00029767  CHARGE =  7.0
  H   15    (CENTRE 15)  -8.69410350 -0.00003437 -0.00084346  CHARGE =  1.0
  N   16    (CENTRE 16)  -2.78998208 -2.38273206  0.00012211  CHARGE =  7.0
  N   17    (CENTRE 17)   1.26714494 -4.68173905  0.00046909  CHARGE =  7.0
  H   18    (CENTRE 18)   2.19187675 -6.34492186 -0.00000038  CHARGE =  1.0
  N   19    (CENTRE 19)   5.41226894 -2.30305512 -0.00036201  CHARGE =  7.0
  H   20    (CENTRE 20)   6.38264853 -3.93945147 -0.00140700  CHARGE =  1.0
  N   21    (CENTRE 21)   5.41233004  2.30302986  0.00004411  CHARGE =  7.0
  H   22    (CENTRE 22)   6.38289939  3.93931690 -0.00005720  CHARGE =  1.0
  N   23    (CENTRE 23)   1.26712128  4.68180252  0.00052595  CHARGE =  7.0
  H   24    (CENTRE 24)   2.19165743  6.34509630  0.00080121  CHARGE =  1.0
  N   25    (CENTRE 25)  -2.79000880  2.38271609 -0.00006784  CHARGE =  7.0
  N   26    (CENTRE 26)   1.32121599  0.00004012  0.00038012  CHARGE =  7.0
CENTRE ASSIGNMENTS    1  1  1  1  1  1  1  1  1  1  1  1  1  1  1  1  1  1  1  1
CENTRE ASSIGNMENTS    1  1  1  1  1  1  1  1  2  2  2  2  3  3  3  3  3  3  3  3
CENTRE ASSIGNMENTS    3  3  3  3  3  3  3  3  3  3  3  3  3  3  3  3  3  3  3  3
CENTRE ASSIGNMENTS    4  4  4  4  5  5  5  5  5  5  5  5  5  5  5  5  5  5  5  5
CENTRE ASSIGNMENTS    5  5  5  5  5  5  5  5  5  5  5  5  6  6  6  6  6  6  6  6
CENTRE ASSIGNMENTS    6  6  6  6  6  6  6  6  6  6  6  6  6  6  6  6  6  6  6  6
CENTRE ASSIGNMENTS    7  7  7  7  8  8  8  8  8  8  8  8  8  8  8  8  8  8  8  8
CENTRE ASSIGNMENTS    8  8  8  8  8  8  8  8  8  8  8  8  9  9  9  9  9  9  9  9
CENTRE ASSIGNMENTS    9  9  9  9  9  9  9  9  9  9  9  9  9  9  9  9  9  9  9  9
CENTRE ASSIGNMENTS   10 10 10 10 11 11 11 11 11 11 11 11 11 11 11 11 11 11 11 11
CENTRE ASSIGNMENTS   11 11 11 11 11 11 11 11 11 11 11 11 12 12 12 12 13 13 13 13
CENTRE ASSIGNMENTS   13 13 13 13 13 13 13 13 13 13 13 13 13 13 13 13 13 13 13 13
CENTRE ASSIGNMENTS   13 13 13 13 14 14 14 14 14 14 14 14 14 14 14 14 14 14 14 14
CENTRE ASSIGNMENTS   14 14 14 14 14 14 14 14 14 14 14 14 15 15 15 15 16 16 16 16
CENTRE ASSIGNMENTS   16 16 16 16 16 16 16 16 16 16 16 16 16 16 16 16 16 16 16 16
CENTRE ASSIGNMENTS   16 16 16 16 17 17 17 17 17 17 17 17 17 17 17 17 17 17 17 17
CENTRE ASSIGNMENTS   17 17 17 17 17 17 17 17 17 17 17 17 18 18 18 18 19 19 19 19
CENTRE ASSIGNMENTS   19 19 19 19 19 19 19 19 19 19 19 19 19 19 19 19 19 19 19 19
CENTRE ASSIGNMENTS   19 19 19 19 20 20 20 20 21 21 21 21 21 21 21 21 21 21 21 21
CENTRE ASSIGNMENTS   21 21 21 21 21 21 21 21 21 21 21 21 21 21 21 21 22 22 22 22
CENTRE ASSIGNMENTS   23 23 23 23 23 23 23 23 23 23 23 23 23 23 23 23 23 23 23 23
CENTRE ASSIGNMENTS   23 23 23 23 23 23 23 23 24 24 24 24 25 25 25 25 25 25 25 25
CENTRE ASSIGNMENTS   25 25 25 25 25 25 25 25 25 25 25 25 25 25 25 25 25 25 25 25
CENTRE ASSIGNMENTS   26 26 26 26 26 26 26 26 26 26 26 26 26 26 26 26 26 26 26 26
CENTRE ASSIGNMENTS   26 26 26 26 26 26 26 26
TYPE ASSIGNMENTS      1  1  1  1  1  1  1  1  1  2  2  2  3  3  3  4  4  4  1  2
TYPE ASSIGNMENTS      3  4  5  6  7  8  9 10  1  1  1  1  1  1  1  1  1  1  1  1
TYPE ASSIGNMENTS      1  2  2  2  3  3  3  4  4  4  1  2  3  4  5  6  7  8  9 10
TYPE ASSIGNMENTS      1  1  1  1  1  1  1  1  1  1  1  1  1  2  2  2  3  3  3  4
TYPE ASSIGNMENTS      4  4  1  2  3  4  5  6  7  8  9 10  1  1  1  1  1  1  1  1
TYPE ASSIGNMENTS      1  2  2  2  3  3  3  4  4  4  1  2  3  4  5  6  7  8  9 10
TYPE ASSIGNMENTS      1  1  1  1  1  1  1  1  1  1  1  1  1  2  2  2  3  3  3  4
TYPE ASSIGNMENTS      4  4  1  2  3  4  5  6  7  8  9 10  1  1  1  1  1  1  1  1
TYPE ASSIGNMENTS      1  2  2  2  3  3  3  4  4  4  1  2  3  4  5  6  7  8  9 10
TYPE ASSIGNMENTS      1  1  1  1  1  1  1  1  1  1  1  1  1  2  2  2  3  3  3  4
TYPE ASSIGNMENTS      4  4  1  2  3  4  5  6  7  8  9 10  1  1  1  1  1  1  1  1
TYPE ASSIGNMENTS      1  1  1  1  1  2  2  2  3  3  3  4  4  4  1  2  3  4  5  6
TYPE ASSIGNMENTS      7  8  9 10  1  1  1  1  1  1  1  1  1  2  2  2  3  3  3  4
TYPE ASSIGNMENTS      4  4  1  2  3  4  5  6  7  8  9 10  1  1  1  1  1  1  1  1
TYPE ASSIGNMENTS      1  1  1  1  1  2  2  2  3  3  3  4  4  4  1  2  3  4  5  6
TYPE ASSIGNMENTS      7  8  9 10  1  1  1  1  1  1  1  1  1  2  2  2  3  3  3  4
TYPE ASSIGNMENTS      4  4  1  2  3  4  5  6  7  8  9 10  1  1  1  1  1  1  1  1
TYPE ASSIGNMENTS      1  1  1  1  1  2  2  2  3  3  3  4  4  4  1  2  3  4  5  6
TYPE ASSIGNMENTS      7  8  9 10  1  1  1  1  1  1  1  1  1  1  1  1  1  2  2  2
TYPE ASSIGNMENTS      3  3  3  4  4  4  1  2  3  4  5  6  7  8  9 10  1  1  1  1
TYPE ASSIGNMENTS      1  1  1  1  1  1  1  1  1  2  2  2  3  3  3  4  4  4  1  2
TYPE ASSIGNMENTS      3  4  5  6  7  8  9 10  1  1  1  1  1  1  1  1  1  1  1  1
TYPE ASSIGNMENTS      1  2  2  2  3  3  3  4  4  4  1  2  3  4  5  6  7  8  9 10
TYPE ASSIGNMENTS      1  1  1  1  1  1  1  1  1  2  2  2  3  3  3  4  4  4  1  2
TYPE ASSIGNMENTS      3  4  5  6  7  8  9 10
EXPONENTS  0.2068882D+04 0.3106496D+03 0.7068303D+02 0.1986108D+02 0.6299305D+01
EXPONENTS  0.2127027D+01 0.4727971D+01 0.1190338D+01 0.3594117D+00 0.4727971D+01
EXPONENTS  0.1190338D+01 0.3594117D+00 0.4727971D+01 0.1190338D+01 0.3594117D+00
EXPONENTS  0.4727971D+01 0.1190338D+01 0.3594117D+00 0.1267512D+00 0.1267512D+00
EXPONENTS  0.1267512D+00 0.1267512D+00 0.6000000D+00 0.6000000D+00 0.6000000D+00
EXPONENTS  0.6000000D+00 0.6000000D+00 0.6000000D+00 0.1873114D+02 0.2825394D+01
EXPONENTS  0.6401217D+00 0.1612778D+00 0.2068882D+04 0.3106496D+03 0.7068303D+02
EXPONENTS  0.1986108D+02 0.6299305D+01 0.2127027D+01 0.4727971D+01 0.1190338D+01
EXPONENTS  0.3594117D+00 0.4727971D+01 0.1190338D+01 0.3594117D+00 0.4727971D+01
EXPONENTS  0.1190338D+01 0.3594117D+00 0.4727971D+01 0.1190338D+01 0.3594117D+00
EXPONENTS  0.1267512D+00 0.1267512D+00 0.1267512D+00 0.1267512D+00 0.6000000D+00
EXPONENTS  0.6000000D+00 0.6000000D+00 0.6000000D+00 0.6000000D+00 0.6000000D+00
EXPONENTS  0.1873114D+02 0.2825394D+01 0.6401217D+00 0.1612778D+00 0.2068882D+04
EXPONENTS  0.3106496D+03 0.7068303D+02 0.1986108D+02 0.6299305D+01 0.2127027D+01
EXPONENTS  0.4727971D+01 0.1190338D+01 0.3594117D+00 0.4727971D+01 0.1190338D+01
EXPONENTS  0.3594117D+00 0.4727971D+01 0.1190338D+01 0.3594117D+00 0.4727971D+01
EXPONENTS  0.1190338D+01 0.3594117D+00 0.1267512D+00 0.1267512D+00 0.1267512D+00
EXPONENTS  0.1267512D+00 0.6000000D+00 0.6000000D+00 0.6000000D+00 0.6000000D+00
EXPONENTS  0.6000000D+00 0.6000000D+00 0.2068882D+04 0.3106496D+03 0.7068303D+02
EXPONENTS  0.1986108D+02 0.6299305D+01 0.2127027D+01 0.4727971D+01 0.1190338D+01
EXPONENTS  0.3594117D+00 0.4727971D+01 0.1190338D+01 0.3594117D+00 0.4727971D+01
EXPONENTS  0.1190338D+01 0.3594117D+00 0.4727971D+01 0.1190338D+01 0.3594117D+00
EXPONENTS  0.1267512D+00 0.1267512D+00 0.1267512D+00 0.1267512D+00 0.6000000D+00
EXPONENTS  0.6000000D+00 0.6000000D+00 0.6000000D+00 0.6000000D+00 0.6000000D+00
EXPONENTS  0.1873114D+02 0.2825394D+01 0.6401217D+00 0.1612778D+00 0.2068882D+04
EXPONENTS  0.3106496D+03 0.7068303D+02 0.1986108D+02 0.6299305D+01 0.2127027D+01
EXPONENTS  0.4727971D+01 0.1190338D+01 0.3594117D+00 0.4727971D+01 0.1190338D+01
EXPONENTS  0.3594117D+00 0.4727971D+01 0.1190338D+01 0.3594117D+00 0.4727971D+01
EXPONENTS  0.1190338D+01 0.3594117D+00 0.1267512D+00 0.1267512D+00 0.1267512D+00
EXPONENTS  0.1267512D+00 0.6000000D+00 0.6000000D+00 0.6000000D+00 0.6000000D+00
EXPONENTS  0.6000000D+00 0.6000000D+00 0.2068882D+04 0.3106496D+03 0.7068303D+02
EXPONENTS  0.1986108D+02 0.6299305D+01 0.2127027D+01 0.4727971D+01 0.1190338D+01
EXPONENTS  0.3594117D+00 0.4727971D+01 0.1190338D+01 0.3594117D+00 0.4727971D+01
EXPONENTS  0.1190338D+01 0.3594117D+00 0.4727971D+01 0.1190338D+01 0.3594117D+00
EXPONENTS  0.1267512D+00 0.1267512D+00 0.1267512D+00 0.1267512D+00 0.6000000D+00
EXPONENTS  0.6000000D+00 0.6000000D+00 0.6000000D+00 0.6000000D+00 0.6000000D+00
EXPONENTS  0.1873114D+02 0.2825394D+01 0.6401217D+00 0.1612778D+00 0.2068882D+04
EXPONENTS  0.3106496D+03 0.7068303D+02 0.1986108D+02 0.6299305D+01 0.2127027D+01
EXPONENTS  0.4727971D+01 0.1190338D+01 0.3594117D+00 0.4727971D+01 0.1190338D+01
EXPONENTS  0.3594117D+00 0.4727971D+01 0.1190338D+01 0.3594117D+00 0.4727971D+01
EXPONENTS  0.1190338D+01 0.3594117D+00 0.1267512D+00 0.1267512D+00 0.1267512D+00
EXPONENTS  0.1267512D+00 0.6000000D+00 0.6000000D+00 0.6000000D+00 0.6000000D+00
EXPONENTS  0.6000000D+00 0.6000000D+00 0.1873114D+02 0.2825394D+01 0.6401217D+00
EXPONENTS  0.1612778D+00 0.2068882D+04 0.3106496D+03 0.7068303D+02 0.1986108D+02
EXPONENTS  0.6299305D+01 0.2127027D+01 0.4727971D+01 0.1190338D+01 0.3594117D+00
EXPONENTS  0.4727971D+01 0.1190338D+01 0.3594117D+00 0.4727971D+01 0.1190338D+01
EXPONENTS  0.3594117D+00 0.4727971D+01 0.1190338D+01 0.3594117D+00 0.1267512D+00
EXPONENTS  0.1267512D+00 0.1267512D+00 0.1267512D+00 0.6000000D+00 0.6000000D+00
EXPONENTS  0.6000000D+00 0.6000000D+00 0.6000000D+00 0.6000000D+00 0.4173511D+04
EXPONENTS  0.6274579D+03 0.1429021D+03 0.4023433D+02 0.1282021D+02 0.4390437D+01
EXPONENTS  0.1162636D+02 0.2716280D+01 0.7722184D+00 0.1162636D+02 0.2716280D+01
EXPONENTS  0.7722184D+00 0.1162636D+02 0.2716280D+01 0.7722184D+00 0.1162636D+02
EXPONENTS  0.2716280D+01 0.7722184D+00 0.2120315D+00 0.2120315D+00 0.2120315D+00
EXPONENTS  0.2120315D+00 0.8000000D+00 0.8000000D+00 0.8000000D+00 0.8000000D+00
EXPONENTS  0.8000000D+00 0.8000000D+00 0.1873114D+02 0.2825394D+01 0.6401217D+00
EXPONENTS  0.1612778D+00 0.4173511D+04 0.6274579D+03 0.1429021D+03 0.4023433D+02
EXPONENTS  0.1282021D+02 0.4390437D+01 0.1162636D+02 0.2716280D+01 0.7722184D+00
EXPONENTS  0.1162636D+02 0.2716280D+01 0.7722184D+00 0.1162636D+02 0.2716280D+01
EXPONENTS  0.7722184D+00 0.1162636D+02 0.2716280D+01 0.7722184D+00 0.2120315D+00
EXPONENTS  0.2120315D+00 0.2120315D+00 0.2120315D+00 0.8000000D+00 0.8000000D+00
EXPONENTS  0.8000000D+00 0.8000000D+00 0.8000000D+00 0.8000000D+00 0.4173511D+04
EXPONENTS  0.6274579D+03 0.1429021D+03 0.4023433D+02 0.1282021D+02 0.4390437D+01
EXPONENTS  0.1162636D+02 0.2716280D+01 0.7722184D+00 0.1162636D+02 0.2716280D+01
EXPONENTS  0.7722184D+00 0.1162636D+02 0.2716280D+01 0.7722184D+00 0.1162636D+02
EXPONENTS  0.2716280D+01 0.7722184D+00 0.2120315D+00 0.2120315D+00 0.2120315D+00
EXPONENTS  0.2120315D+00 0.8000000D+00 0.8000000D+00 0.8000000D+00 0.8000000D+00
EXPONENTS  0.8000000D+00 0.8000000D+00 0.1873114D+02 0.2825394D+01 0.6401217D+00
EXPONENTS  0.1612778D+00 0.4173511D+04 0.6274579D+03 0.1429021D+03 0.4023433D+02
EXPONENTS  0.1282021D+02 0.4390437D+01 0.1162636D+02 0.2716280D+01 0.7722184D+00
EXPONENTS  0.1162636D+02 0.2716280D+01 0.7722184D+00 0.1162636D+02 0.2716280D+01
EXPONENTS  0.7722184D+00 0.1162636D+02 0.2716280D+01 0.7722184D+00 0.2120315D+00
EXPONENTS  0.2120315D+00 0.2120315D+00 0.2120315D+00 0.8000000D+00 0.8000000D+00
EXPONENTS  0.8000000D+00 0.8000000D+00 0.8000000D+00 0.8000000D+00 0.1873114D+02
EXPONENTS  0.2825394D+01 0.6401217D+00 0.1612778D+00 0.4173511D+04 0.6274579D+03
EXPONENTS  0.1429021D+03 0.4023433D+02 0.1282021D+02 0.4390437D+01 0.1162636D+02
EXPONENTS  0.2716280D+01 0.7722184D+00 0.1162636D+02 0.2716280D+01 0.7722184D+00
EXPONENTS  0.1162636D+02 0.2716280D+01 0.7722184D+00 0.1162636D+02 0.2716280D+01
EXPONENTS  0.7722184D+00 0.2120315D+00 0.2120315D+00 0.2120315D+00 0.2120315D+00
EXPONENTS  0.8000000D+00 0.8000000D+00 0.8000000D+00 0.8000000D+00 0.8000000D+00
EXPONENTS  0.8000000D+00 0.1873114D+02 0.2825394D+01 0.6401217D+00 0.1612778D+00
EXPONENTS  0.4173511D+04 0.6274579D+03 0.1429021D+03 0.4023433D+02 0.1282021D+02
EXPONENTS  0.4390437D+01 0.1162636D+02 0.2716280D+01 0.7722184D+00 0.1162636D+02
EXPONENTS  0.2716280D+01 0.7722184D+00 0.1162636D+02 0.2716280D+01 0.7722184D+00
EXPONENTS  0.1162636D+02 0.2716280D+01 0.7722184D+00 0.2120315D+00 0.2120315D+00
EXPONENTS  0.2120315D+00 0.2120315D+00 0.8000000D+00 0.8000000D+00 0.8000000D+00
EXPONENTS  0.8000000D+00 0.8000000D+00 0.8000000D+00 0.1873114D+02 0.2825394D+01
EXPONENTS  0.6401217D+00 0.1612778D+00 0.4173511D+04 0.6274579D+03 0.1429021D+03
EXPONENTS  0.4023433D+02 0.1282021D+02 0.4390437D+01 0.1162636D+02 0.2716280D+01
EXPONENTS  0.7722184D+00 0.1162636D+02 0.2716280D+01 0.7722184D+00 0.1162636D+02
EXPONENTS  0.2716280D+01 0.7722184D+00 0.1162636D+02 0.2716280D+01 0.7722184D+00
EXPONENTS  0.2120315D+00 0.2120315D+00 0.2120315D+00 0.2120315D+00 0.8000000D+00
EXPONENTS  0.8000000D+00 0.8000000D+00 0.8000000D+00 0.8000000D+00 0.8000000D+00
EXPONENTS  0.4173511D+04 0.6274579D+03 0.1429021D+03 0.4023433D+02 0.1282021D+02
EXPONENTS  0.4390437D+01 0.1162636D+02 0.2716280D+01 0.7722184D+00 0.1162636D+02
EXPONENTS  0.2716280D+01 0.7722184D+00 0.1162636D+02 0.2716280D+01 0.7722184D+00
EXPONENTS  0.1162636D+02 0.2716280D+01 0.7722184D+00 0.2120315D+00 0.2120315D+00
EXPONENTS  0.2120315D+00 0.2120315D+00 0.8000000D+00 0.8000000D+00 0.8000000D+00
EXPONENTS  0.8000000D+00 0.8000000D+00 0.8000000D+00
MO    1     MO 0.0        OCC NO =    1.0000000  ORB. ENERGY =  -14.514173
  0.22290172D-06  0.41058127D-06  0.66013031D-06  0.85191717D-06  0.72309539D-06
  0.24922310D-06 -0.82282455D-06 -0.29333772D-06  0.10331887D-05  0.22376017D-05
  0.16467845D-05  0.89014454D-06  0.79209939D-06  0.58295315D-06  0.31510655D-06
 -0.46527860D-09 -0.34242625D-09 -0.18509335D-09 -0.92298504D-06  0.50135025D-06
 -0.15299480D-05  0.50800394D-09  0.66590049D-06  0.16532449D-06  0.48751492D-06
  0.12742461D-05  0.66225254D-09  0.52494123D-09 -0.21629129D-06 -0.36687097D-06
 -0.41766963D-06 -0.20946054D-06 -0.81319514D-06 -0.14978919D-05 -0.24083024D-05
 -0.31079836D-05 -0.26380131D-05 -0.90922138D-06  0.27533460D-05  0.98157041D-06
 -0.34572690D-05 -0.48174148D-05 -0.35454227D-05 -0.19164248D-05 -0.48935979D-06
 -0.36014904D-06 -0.19467314D-06  0.31318526D-08  0.23049170D-08  0.12458882D-08
  0.90182476D-05  0.46728727D-05  0.55998330D-06 -0.44639972D-09 -0.65172964D-05
 -0.15463004D-05 -0.63817789D-06  0.28421308D-05  0.17798173D-08 -0.12202967D-08
 -0.12010674D-06 -0.20372377D-06 -0.23193231D-06  0.39317606D-06 -0.14867564D-05
 -0.27385807D-05 -0.44030749D-05 -0.56822949D-05 -0.48230525D-05 -0.16623202D-05
  0.31166098D-04  0.11110743D-04 -0.39134052D-04 -0.19016649D-03 -0.13995485D-03
 -0.75650488D-04  0.41307707D-05  0.30400803D-05  0.16432697D-05  0.20293647D-07
  0.14935304D-07  0.80730538D-08  0.61658242D-04  0.54134723D-04  0.18814325D-04
  0.35236732D-09 -0.14070620D-03 -0.30716418D-05  0.26059218D-04 -0.19317586D-05
  0.48991954D-07 -0.48656018D-09  0.35556940D-06  0.65495293D-06  0.10530297D-05
  0.13589652D-05  0.11534706D-05  0.39755685D-06 -0.69244702D-05 -0.24685801D-05
  0.86947869D-05 -0.26257276D-04 -0.19324294D-04 -0.10445456D-04  0.38595485D-03
  0.28404718D-03  0.15353742D-03  0.48848249D-07  0.35950338D-07  0.19432414D-07
 -0.10635894D-04  0.11975394D-05 -0.43484551D-04 -0.25298635D-08  0.51812445D-05
  0.23175575D-04 -0.56564259D-05 -0.30050909D-03 -0.41362259D-07  0.19660624D-06
  0.39718392D-06  0.67369911D-06  0.76698262D-06  0.15826531D-05  0.20706652D-05
  0.38141310D-05  0.61323388D-05  0.79139598D-05  0.67172585D-05  0.23151800D-05
 -0.39244812D-04 -0.13990812D-04  0.49278178D-04  0.23326579D-03  0.17167419D-03
  0.92795901D-04  0.12093671D-05  0.89004528D-06  0.48110058D-06 -0.24946312D-07
 -0.18359478D-07 -0.99239392D-08 -0.68671671D-04 -0.61359339D-04  0.18410905D-04
  0.35737415D-08  0.17124534D-03  0.42595803D-05 -0.31252264D-04 -0.25270354D-05
 -0.45524904D-07  0.40205699D-08  0.97429904D-06  0.17946427D-05  0.28854166D-05
  0.37237132D-05  0.31606357D-05  0.10893493D-05 -0.31819395D-05 -0.11343644D-05
  0.39954372D-05  0.55450193D-05  0.40809101D-05  0.22058745D-05 -0.14445579D-05
 -0.10631363D-05 -0.57466230D-06  0.26503474D-08  0.19505486D-08  0.10543397D-08
 -0.95189940D-05 -0.50713302D-05 -0.36186648D-06 -0.14546605D-08  0.79713060D-05
  0.23278921D-05  0.73538237D-06  0.31554234D-05  0.40035871D-08  0.21494222D-08
  0.13373683D-06  0.22684297D-06  0.25825270D-06  0.35801230D-06 -0.29106337D-06
 -0.53613389D-06 -0.86199312D-06 -0.11124269D-05 -0.94421244D-06 -0.32543362D-06
  0.10706921D-05  0.38170275D-06 -0.13444263D-05 -0.31853906D-05 -0.23443188D-05
 -0.12671862D-05  0.77036004D-06  0.56695386D-06  0.30645837D-06 -0.13238415D-08
 -0.97429385D-09 -0.52663987D-09  0.63966262D-06 -0.67260080D-06 -0.17677779D-05
  0.19373644D-09 -0.11275233D-05 -0.11506006D-06 -0.57988833D-06  0.14239550D-05
 -0.14014326D-08 -0.37364195D-09  0.25094299D-06  0.42564681D-06  0.48458385D-06
  0.31551720D-06  0.10079102D-06  0.18565540D-06  0.29849572D-06  0.38521732D-06
  0.32696708D-06  0.11269295D-06 -0.23594530D-06 -0.84114718D-07  0.29626730D-06
  0.20813955D-06  0.15318230D-06  0.82800384D-07  0.31941275D-05  0.23507488D-05
  0.12706619D-05  0.26159907D-08  0.19252635D-08  0.10406722D-08 -0.15773399D-05
 -0.28761084D-06 -0.80755774D-05 -0.14668109D-08  0.13413457D-05  0.36001318D-06
  0.58666257D-07 -0.13798847D-05  0.30041014D-09 -0.94092692D-09  0.51085174D-07
  0.94077617D-07  0.15200380D-06  0.19894030D-06  0.17041019D-06  0.58623081D-07
 -0.16834874D-06 -0.83223342D-07  0.21953784D-06  0.29951849D-06  0.23317993D-06
  0.11072208D-06  0.13393959D-05  0.10427411D-05  0.49513034D-06  0.54847599D-09
  0.42699732D-09  0.20275343D-09 -0.48418096D-06 -0.24362030D-06 -0.20246418D-05
 -0.27463436D-09  0.14797087D-06  0.18288908D-06  0.29290119D-06 -0.10464931D-05
 -0.62829852D-10  0.15023355D-09 -0.13439460D-07 -0.22795868D-07 -0.25952290D-07
 -0.11718404D-06 -0.32272279D-06 -0.59432099D-06 -0.96026081D-06 -0.12567750D-05
 -0.10765404D-05 -0.37034237D-06 -0.37194800D-06 -0.18387280D-06  0.48504468D-06
 -0.17128370D-05 -0.13334709D-05 -0.63317917D-06  0.13461516D-05  0.10480005D-05
  0.49762770D-06  0.30549001D-10  0.23782885D-10  0.11292955D-10 -0.51868038D-05
  0.15823540D-05 -0.24965751D-05  0.56290008D-09  0.34011683D-06  0.29260633D-05
 -0.67171165D-06 -0.17110567D-05 -0.13157226D-08 -0.15931854D-08  0.41916541D-04
  0.77192813D-04  0.12472256D-03  0.16323501D-03  0.13982542D-03  0.48101564D-04
  0.20817023D-04  0.10290913D-04 -0.27146769D-04 -0.11352963D-04 -0.88384634D-05
 -0.41968150D-05  0.37298672D-06  0.29037612D-06  0.13788085D-06  0.69852921D-08
  0.54381615D-08  0.25822314D-08  0.41078866D-04  0.97559625D-05  0.14367870D-04
 -0.85135860D-08  0.15068157D-04  0.87262337D-05 -0.26093802D-04  0.24665265D-04
 -0.16634644D-07 -0.17460585D-07 -0.19881865D-05 -0.33723407D-05 -0.38392907D-05
 -0.26405482D-05 -0.42920938D+00 -0.79042494D+00 -0.12771114D+01 -0.16714642D+01
 -0.14317589D+01 -0.49254165D+00  0.11509232D-01  0.56895987D-02 -0.15008797D-01
 -0.22899097D-03 -0.17827313D-03 -0.84650388D-04  0.47810395D-03  0.37221156D-03
  0.17673921D-03  0.53533421D-06  0.41676623D-06  0.19789535D-06 -0.71909282D-03
  0.21307032D-04 -0.28461746D-04 -0.26448166D-07  0.62509527D-02  0.61498348D-02
  0.60853964D-02  0.13098547D-03 -0.62382210D-07 -0.57394850D-07 -0.40138007D-04
 -0.68081657D-04 -0.77508560D-04  0.37436919D-04  0.51953890D+00  0.95677429D+00
  0.15458866D+01  0.20232332D+01  0.17330806D+01  0.59619980D+00 -0.13941484D-01
 -0.68919842D-02  0.18180613D-01  0.27482168D-03  0.21395307D-03  0.10159248D-03
  0.57648963D-03  0.44880639D-03  0.21310915D-03 -0.23244464D-06 -0.18096186D-06
 -0.85927094D-07  0.85862186D-03 -0.22386333D-04 -0.26736356D-04  0.10097900D-07
 -0.75687295D-02 -0.74597004D-02 -0.73558844D-02  0.15895096D-03  0.10467194D-06
 -0.11480961D-06  0.48958984D-04  0.83043703D-04  0.94542321D-04 -0.49724565D-04
 -0.49974136D-04 -0.92031546D-04 -0.14869791D-03 -0.19461359D-03 -0.16670398D-03
 -0.57348102D-04 -0.25311488D-04 -0.12512755D-04  0.33007846D-04  0.14274558D-04
  0.11112971D-04  0.52768318D-05 -0.10122062D-05 -0.78801873D-06 -0.37417917D-06
  0.34186995D-09  0.26615122D-09  0.12637801D-09 -0.47422139D-04 -0.11374360D-04
  0.17379612D-04  0.63967035D-09 -0.18050965D-04 -0.10610746D-04  0.32899825D-04
  0.30404975D-04  0.94589548D-08 -0.48750835D-08  0.22027918D-05  0.37363517D-05
  0.42537044D-05  0.38713198D-05  0.65650438D-06  0.12090077D-05  0.19534270D-05
  0.25566160D-05  0.21899708D-05  0.75337531D-06 -0.51270233D-06 -0.25345483D-06
  0.66859759D-06  0.34586612D-05  0.26926230D-05  0.12785526D-05  0.15737027D-05
  0.12251527D-05  0.58174582D-06 -0.21248468D-08 -0.16542272D-08 -0.78548558D-09
  0.33799370D-05 -0.34223923D-05 -0.30761675D-05  0.11565224D-08  0.52124044D-06
 -0.32844785D-05  0.22729924D-05 -0.22507819D-05  0.70846066D-09 -0.35112051D-09
 -0.12737400D-05 -0.23456986D-05 -0.37900099D-05 -0.49603082D-05 -0.42489485D-05
 -0.14616875D-05 -0.43482764D-05 -0.21495741D-05  0.56704387D-05  0.25744461D-05
  0.20042474D-05  0.95168757D-06  0.78581776D-05  0.61177167D-05  0.29049083D-05
  0.42941925D-08  0.33430975D-08  0.15874209D-08 -0.50505277D-05 -0.23793244D-05
 -0.22973510D-04 -0.30812220D-08 -0.51924303D-05 -0.29136087D-05  0.48698867D-05
 -0.59415325D-04 -0.39302935D-08  0.12598764D-07
MO    2     MO 0.0        OCC NO =    1.0000000  ORB. ENERGY =  -14.514170
 -0.38281076D-06 -0.70513107D-06 -0.11337058D-05 -0.14630800D-05 -0.12418419D-05
 -0.42801502D-06  0.13937527D-05  0.49687413D-06 -0.17500808D-05 -0.52388036D-05
 -0.38555478D-05 -0.20840583D-05  0.39163298D-07  0.28822605D-07  0.15579625D-07
 -0.99292986D-09 -0.73075626D-09 -0.39499929D-09 -0.14116590D-05 -0.95436225D-06
  0.14058513D-05 -0.32860435D-09 -0.25104233D-05  0.25164495D-06 -0.53664645D-06
 -0.91930439D-06 -0.17224394D-08  0.26690824D-09  0.20416541D-06  0.34630317D-06
  0.39425392D-06  0.58216510D-06  0.93023228D-06  0.17134724D-05  0.27549115D-05
  0.35552926D-05  0.30176827D-05  0.10400789D-05 -0.25281193D-05 -0.90127688D-06
  0.31744607D-05  0.43271447D-05  0.31846037D-05  0.17213895D-05  0.51097933D-05
  0.37606014D-05  0.20327365D-05 -0.55467498D-08 -0.40821837D-08 -0.22065629D-08
 -0.35024012D-05 -0.25531766D-05  0.48355879D-05 -0.30692529D-10  0.83543179D-05
  0.42870109D-05  0.57059034D-06 -0.19452829D-05 -0.14977747D-08 -0.19040684D-08
  0.84305791D-07  0.14299858D-06  0.16279883D-06  0.39459028D-05  0.32486492D-05
  0.59839578D-05  0.96209745D-05  0.12416145D-04  0.10538650D-04  0.36322663D-05
 -0.45833020D-04 -0.16339514D-04  0.57550734D-04  0.24657486D-03  0.18146914D-03
  0.98090409D-04  0.15042843D-04  0.11070925D-04  0.59842217D-05 -0.24533349D-07
 -0.18055554D-07 -0.97596576D-08 -0.43030370D-04 -0.43402868D-04  0.34611799D-06
 -0.40076974D-08  0.17517660D-03  0.66296760D-05 -0.30010659D-04  0.32835482D-05
 -0.54542187D-07 -0.10340752D-08  0.37351331D-05  0.68800531D-05  0.11061712D-04
  0.14275457D-04  0.12116809D-04  0.41761967D-05 -0.72715956D-04 -0.25923306D-04
  0.91306586D-04 -0.27585726D-03 -0.20301980D-03 -0.10973929D-03 -0.36742244D-04
 -0.27040807D-04 -0.14616501D-04  0.16535184D-06  0.12169227D-06  0.65778926D-07
 -0.11177184D-03  0.12577206D-04  0.41440853D-05 -0.24658831D-07  0.54476798D-04
  0.24339712D-03 -0.59406548D-04  0.28620316D-04 -0.13235446D-06  0.34067338D-07
  0.41764550D-05  0.70840581D-05  0.80649498D-05  0.16640775D-04  0.29079229D-05
  0.53563458D-05  0.86119033D-05  0.11113909D-04  0.94333308D-05  0.32513054D-05
 -0.39118424D-04 -0.13945754D-04  0.49119477D-04  0.20624564D-03  0.15178846D-03
  0.82046964D-04 -0.15561881D-04 -0.11452916D-04 -0.61907012D-05 -0.28510893D-07
 -0.20982865D-07 -0.11341972D-07 -0.30620713D-04 -0.32416402D-04 -0.38926758D-05
 -0.30802269D-08  0.14548869D-03  0.59290756D-05 -0.24551447D-04 -0.28730865D-05
 -0.36760616D-07  0.65780909D-08  0.76032953D-06  0.14005144D-05  0.22517393D-05
  0.29059344D-05  0.24665165D-05  0.85011314D-06 -0.19643014D-05 -0.70027528D-06
  0.24664966D-05  0.33394350D-05  0.24576892D-05  0.13284669D-05 -0.49255139D-05
 -0.36249792D-05 -0.19594279D-05  0.54933102D-09  0.40428544D-09  0.21853041D-09
 -0.17377123D-05 -0.16260631D-05 -0.48546316D-05 -0.94681846D-09  0.69709450D-05
  0.39185674D-05  0.44078408D-06  0.13719117D-05  0.14288795D-08  0.14495471D-08
  0.60007674D-07  0.10178437D-06  0.11587791D-06  0.39491512D-05 -0.33390812D-06
 -0.61505322D-06 -0.98887918D-06 -0.12761771D-05 -0.10832013D-05 -0.37333770D-06
  0.12134987D-05  0.43261342D-06 -0.15237430D-05 -0.47223100D-05 -0.34754294D-05
 -0.18785910D-05 -0.18748248D-06 -0.13797953D-06 -0.74582757D-07 -0.16372775D-08
 -0.12049701D-08 -0.65132844D-09 -0.15592666D-05 -0.84224850D-06 -0.10924864D-05
  0.19333840D-09 -0.23394564D-05  0.27813485D-06 -0.43534088D-06  0.66275418D-06
 -0.99478321D-09 -0.21094526D-09  0.15970322D-06  0.27088689D-06  0.30839515D-06
  0.53251843D-06  0.10544104D-05  0.19422064D-05  0.31226688D-05  0.40298940D-05
  0.34205177D-05  0.11789206D-05 -0.24641148D-05 -0.87845920D-06  0.30940927D-05
  0.21614803D-05  0.15907622D-05  0.85986254D-06 -0.30393004D-06 -0.22368023D-06
 -0.12090698D-06 -0.27295185D-08 -0.20088153D-08 -0.10858349D-08 -0.16569786D-04
 -0.30130808D-05  0.76561419D-06 -0.16876024D-08  0.14075791D-04  0.37734003D-05
  0.60714845D-06  0.13486392D-06 -0.14150578D-08 -0.12029463D-08  0.53671558D-06
  0.98840659D-06  0.15969958D-05  0.20901242D-05  0.17903787D-05  0.61591100D-06
 -0.17688991D-05 -0.87445678D-06  0.23067609D-05  0.31479891D-05  0.24507598D-05
  0.11637074D-05 -0.12740769D-06 -0.99188919D-07 -0.47098407D-07  0.17026137D-09
  0.13255120D-09  0.62939998D-10 -0.50872024D-05 -0.25610308D-05  0.19253356D-06
 -0.16688012D-09  0.15550398D-05  0.19189619D-05  0.30779331D-05  0.99583500D-07
  0.37141051D-09  0.15287889D-10 -0.14156266D-06 -0.24011706D-06 -0.27336478D-06
 -0.12310308D-05  0.18011453D-05  0.33169595D-05  0.53593029D-05  0.70141753D-05
  0.60082698D-05  0.20669144D-05 -0.46557728D-05 -0.23015852D-05  0.60714343D-05
  0.94220967D-05  0.73352527D-05  0.34830375D-05 -0.13362990D-05 -0.10403301D-05
 -0.49398552D-06 -0.20930371D-08 -0.16294628D-08 -0.77372656D-09 -0.90903120D-05
 -0.99079027D-05  0.33175603D-05 -0.11492905D-10  0.45372323D-05 -0.21778457D-05
  0.85552978D-05  0.30265581D-05  0.59901126D-09  0.39858524D-08 -0.46753460D-04
 -0.86100403D-04 -0.13911479D-03 -0.18207136D-03 -0.15596044D-03 -0.53652197D-04
 -0.25806910D-04 -0.12757668D-04  0.33653910D-04  0.16521389D-04  0.12862165D-04
  0.61074108D-05  0.72590594D-05  0.56512937D-05  0.26834341D-05 -0.69208979D-08
 -0.53880295D-08 -0.25584270D-08 -0.37518219D-04 -0.95158531D-05 -0.17310528D-04
  0.88027306D-08 -0.17358512D-04 -0.10831488D-04  0.38527092D-04 -0.32828503D-04
  0.19393331D-07  0.21128821D-07  0.13310865D-05  0.22577746D-05  0.25703966D-05
  0.67848711D-05  0.51954494D+00  0.95678541D+00  0.15459046D+01  0.20232567D+01
  0.17331007D+01  0.59620673D+00 -0.13985041D-01 -0.69135169D-02  0.18237415D-01
  0.26421515D-03  0.20569572D-03  0.97671602D-04 -0.56721714D-03 -0.44158760D-03
 -0.20968141D-03 -0.64860023D-06 -0.50494564D-06 -0.23976605D-06  0.80785938D-03
 -0.76742584D-05 -0.64015346D-05  0.32619045D-07 -0.75785374D-02 -0.75269101D-02
 -0.73121415D-02 -0.16061465D-03  0.14747059D-06  0.61033866D-07  0.50566813D-04
  0.85770886D-04  0.97647122D-04 -0.68690971D-04  0.42921671D+00  0.79043842D+00
  0.12771332D+01  0.16714927D+01  0.14317833D+01  0.49255006D+00 -0.11561917D-01
 -0.57156435D-02  0.15077501D-01  0.21633056D-03  0.16841680D-03  0.79970252D-04
  0.46675116D-03  0.36337323D-03  0.17254246D-03 -0.21452076D-06 -0.16700784D-06
 -0.79301230D-07  0.65764748D-03 -0.35282197D-05  0.11664129D-04  0.25796750D-07
 -0.62627714D-02 -0.62311634D-02 -0.60324079D-02  0.13301550D-03  0.14985344D-06
 -0.13013456D-06  0.42083867D-04  0.71382204D-04  0.81266116D-04 -0.60391905D-04
 -0.37994267D-04 -0.69969618D-04 -0.11305184D-03 -0.14796056D-03 -0.12674148D-03
 -0.43600536D-04 -0.21413727D-04 -0.10585894D-04  0.27924909D-04  0.14086029D-04
  0.10966198D-04  0.52071389D-05 -0.72057442D-05 -0.56097869D-05 -0.26637252D-05
 -0.36621420D-08 -0.28510360D-08 -0.13537728D-08 -0.29093665D-04 -0.74998965D-05
  0.14293144D-04  0.37887672D-08 -0.14185950D-04 -0.89897492D-05  0.32914465D-04
  0.27577152D-04  0.87773814D-08 -0.94115058D-08  0.93063434D-06  0.15785320D-05
  0.17971029D-05  0.61622282D-05  0.17071480D-05  0.31438557D-05  0.50796144D-05
  0.66481232D-05  0.56947134D-05  0.19590474D-05 -0.46402794D-05 -0.22939260D-05
  0.60512299D-05  0.89284424D-05  0.69509350D-05  0.33005498D-05  0.10583937D-05
  0.82397640D-06  0.39125314D-06 -0.47991618D-09 -0.37362241D-09 -0.17740913D-09
 -0.98984059D-05 -0.94286938D-05 -0.27888037D-05 -0.12154033D-09  0.45170194D-05
 -0.15863327D-05  0.82722944D-05 -0.26511666D-05  0.89911726D-10 -0.72096080D-09
 -0.13388406D-04 -0.24655869D-04 -0.39837167D-04 -0.52138288D-04 -0.44661116D-04
 -0.15363941D-04 -0.45656881D-04 -0.22570517D-04  0.59539579D-04  0.27039513D-04
  0.21050693D-04  0.99956134D-05 -0.74283280D-06 -0.57830719D-06 -0.27460071D-06
 -0.19798155D-07 -0.15413180D-07 -0.73187230D-08 -0.52998293D-04 -0.25018332D-04
  0.21835224D-05  0.14158876D-07 -0.54569203D-04 -0.30629045D-04  0.51127200D-04
  0.56625703D-05  0.29387717D-07 -0.16915138D-07
MO    3     MO 0.0        OCC NO =    1.0000000  ORB. ENERGY =  -14.500884