 Generated by Multiwfn
GAUSSIAN             53 MOL ORBITALS    488 PRIMITIVES       26 NUCLEI
  B    1    (CENTRE  1)  -5.51367030 -2.37205526 -0.00026059  CHARGE =  5.0
  H    2    (CENTRE  2)  -6.67372066 -4.29950238 -0.00065528  CHARGE =  1.0
  B    3    (CENTRE  3)  -1.41468761 -4.74389709  0.00060936  CHARGE =  5.0
  H    4    (CENTRE  4)  -2.51092004 -6.70860604  0.00062472  CHARGE =  1.0
  B    5    (CENTRE  5)   2.69809381 -2.37053289  0.00005354  CHARGE =  5.0
  B    6    (CENTRE  6)   6.81180522 -0.00003466 -0.00097268  CHARGE =  5.0
  H    7    (CENTRE  7)   9.06425563 -0.00006074 -0.00119569  CHARGE =  1.0
  B    8    (CENTRE  8)   2.69811930  2.37059155  0.00041599  CHARGE =  5.0
  B    9    (CENTRE  9)  -1.41471822  4.74388086  0.00016584  CHARGE =  5.0
  H   10    (CENTRE 10)  -2.51097626  6.70857912 -0.00011191  CHARGE =  1.0
  B   11    (CENTRE 11)  -5.51369508  2.37201812 -0.00048269  CHARGE =  5.0
  H   12    (CENTRE 12)  -6.67376964  4.29944998 -0.00108463  CHARGE =  1.0
  B   13    (CENTRE 13)  -1.41273745  0.00000614  0.00011777  CHARGE =  5.0
  N   14    (CENTRE 14)  -6.79186112 -0.00002651 -0.00029767  CHARGE =  7.0
  H   15    (CENTRE 15)  -8.69410350 -0.00003437 -0.00084346  CHARGE =  1.0
  N   16    (CENTRE 16)  -2.78998208 -2.38273206  0.00012211  CHARGE =  7.0
  N   17    (CENTRE 17)   1.26714494 -4.68173905  0.00046909  CHARGE =  7.0
  H   18    (CENTRE 18)   2.19187675 -6.34492186 -0.00000038  CHARGE =  1.0
  N   19    (CENTRE 19)   5.41226894 -2.30305512 -0.00036201  CHARGE =  7.0
  H   20    (CENTRE 20)   6.38264853 -3.93945147 -0.00140700  CHARGE =  1.0
  N   21    (CENTRE 21)   5.41233004  2.30302986  0.00004411  CHARGE =  7.0
  H   22    (CENTRE 22)   6.38289939  3.93931690 -0.00005720  CHARGE =  1.0
  N   23    (CENTRE 23)   1.26712128  4.68180252  0.00052595  CHARGE =  7.0
  H   24    (CENTRE 24)   2.19165743  6.34509630  0.00080121  CHARGE =  1.0
  N   25    (CENTRE 25)  -2.79000880  2.38271609 -0.00006784  CHARGE =  7.0
  N   26    (CENTRE 26)   1.32121599  0.00004012  0.00038012  CHARGE =  7.0
CENTRE ASSIGNMENTS    1  1  1  1  1  1  1  1  1  1  1  1  1  1  1  1  1  1  1  1
CENTRE ASSIGNMENTS    1  1  1  1  1  1  1  1  2  2  2  2  3  3  3  3  3  3  3  3
CENTRE ASSIGNMENTS    3  3  3  3  3  3  3  3  3  3  3  3  3  3  3  3  3  3  3  3
CENTRE ASSIGNMENTS    4  4  4  4  5  5  5  5  5  5  5  5  5  5  5  5  5  5  5  5
CENTRE ASSIGNMENTS    5  5  5  5  5  5  5  5  5  5  5  5  6  6  6  6  6  6  6  6
CENTRE ASSIGNMENTS    6  6  6  6  6  6  6  6  6  6  6  6  6  6  6  6  6  6  6  6
CENTRE ASSIGNMENTS    7  7  7  7  8  8  8  8  8  8  8  8  8  8  8  8  8  8  8  8
CENTRE ASSIGNMENTS    8  8  8  8  8  8  8  8  8  8  8  8  9  9  9  9  9  9  9  9
CENTRE ASSIGNMENTS    9  9  9  9  9  9  9  9  9  9  9  9  9  9  9  9  9  9  9  9
CENTRE ASSIGNMENTS   10 10 10 10 11 11 11 11 11 11 11 11 11 11 11 11 11 11 11 11
CENTRE ASSIGNMENTS   11 11 11 11 11 11 11 11 11 11 11 11 12 12 12 12 13 13 13 13
CENTRE ASSIGNMENTS   13 13 13 13 13 13 13 13 13 13 13 13 13 13 13 13 13 13 13 13
CENTRE ASSIGNMENTS   13 13 13 13 14 14 14 14 14 14 14 14 14 14 14 14 14 14 14 14
CENTRE ASSIGNMENTS   14 14 14 14 14 14 14 14 14 14 14 14 15 15 15 15 16 16 16 16
CENTRE ASSIGNMENTS   16 16 16 16 16 16 16 16 16 16 16 16 16 16 16 16 16 16 16 16
CENTRE ASSIGNMENTS   16 16 16 16 17 17 17 17 17 17 17 17 17 17 17 17 17 17 17 17
CENTRE ASSIGNMENTS   17 17 17 17 17 17 17 17 17 17 17 17 18 18 18 18 19 19 19 19
CENTRE ASSIGNMENTS   19 19 19 19 19 19 19 19 19 19 19 19 19 19 19 19 19 19 19 19
CENTRE ASSIGNMENTS   19 19 19 19 20 20 20 20 21 21 21 21 21 21 21 21 21 21 21 21
CENTRE ASSIGNMENTS   21 21 21 21 21 21 21 21 21 21 21 21 21 21 21 21 22 22 22 22
CENTRE ASSIGNMENTS   23 23 23 23 23 23 23 23 23 23 23 23 23 23 23 23 23 23 23 23
CENTRE ASSIGNMENTS   23 23 23 23 23 23 23 23 24 24 24 24 25 25 25 25 25 25 25 25
CENTRE ASSIGNMENTS   25 25 25 25 25 25 25 25 25 25 25 25 25 25 25 25 25 25 25 25
CENTRE ASSIGNMENTS   26 26 26 26 26 26 26 26 26 26 26 26 26 26 26 26 26 26 26 26
CENTRE ASSIGNMENTS   26 26 26 26 26 26 26 26
TYPE ASSIGNMENTS      1  1  1  1  1  1  1  1  1  2  2  2  3  3  3  4  4  4  1  2
TYPE ASSIGNMENTS      3  4  5  6  7  8  9 10  1  1  1  1  1  1  1  1  1  1  1  1
TYPE ASSIGNMENTS      1  2  2  2  3  3  3  4  4  4  1  2  3  4  5  6  7  8  9 10
TYPE ASSIGNMENTS      1  1  1  1  1  1  1  1  1  1  1  1  1  2  2  2  3  3  3  4
TYPE ASSIGNMENTS      4  4  1  2  3  4  5  6  7  8  9 10  1  1  1  1  1  1  1  1
TYPE ASSIGNMENTS      1  2  2  2  3  3  3  4  4  4  1  2  3  4  5  6  7  8  9 10
TYPE ASSIGNMENTS      1  1  1  1  1  1  1  1  1  1  1  1  1  2  2  2  3  3  3  4
TYPE ASSIGNMENTS      4  4  1  2  3  4  5  6  7  8  9 10  1  1  1  1  1  1  1  1
TYPE ASSIGNMENTS      1  2  2  2  3  3  3  4  4  4  1  2  3  4  5  6  7  8  9 10
TYPE ASSIGNMENTS      1  1  1  1  1  1  1  1  1  1  1  1  1  2  2  2  3  3  3  4
TYPE ASSIGNMENTS      4  4  1  2  3  4  5  6  7  8  9 10  1  1  1  1  1  1  1  1
TYPE ASSIGNMENTS      1  1  1  1  1  2  2  2  3  3  3  4  4  4  1  2  3  4  5  6
TYPE ASSIGNMENTS      7  8  9 10  1  1  1  1  1  1  1  1  1  2  2  2  3  3  3  4
TYPE ASSIGNMENTS      4  4  1  2  3  4  5  6  7  8  9 10  1  1  1  1  1  1  1  1
TYPE ASSIGNMENTS      1  1  1  1  1  2  2  2  3  3  3  4  4  4  1  2  3  4  5  6
TYPE ASSIGNMENTS      7  8  9 10  1  1  1  1  1  1  1  1  1  2  2  2  3  3  3  4
TYPE ASSIGNMENTS      4  4  1  2  3  4  5  6  7  8  9 10  1  1  1  1  1  1  1  1
TYPE ASSIGNMENTS      1  1  1  1  1  2  2  2  3  3  3  4  4  4  1  2  3  4  5  6
TYPE ASSIGNMENTS      7  8  9 10  1  1  1  1  1  1  1  1  1  1  1  1  1  2  2  2
TYPE ASSIGNMENTS      3  3  3  4  4  4  1  2  3  4  5  6  7  8  9 10  1  1  1  1
TYPE ASSIGNMENTS      1  1  1  1  1  1  1  1  1  2  2  2  3  3  3  4  4  4  1  2
TYPE ASSIGNMENTS      3  4  5  6  7  8  9 10  1  1  1  1  1  1  1  1  1  1  1  1
TYPE ASSIGNMENTS      1  2  2  2  3  3  3  4  4  4  1  2  3  4  5  6  7  8  9 10
TYPE ASSIGNMENTS      1  1  1  1  1  1  1  1  1  2  2  2  3  3  3  4  4  4  1  2
TYPE ASSIGNMENTS      3  4  5  6  7  8  9 10
EXPONENTS  0.2068882D+04 0.3106496D+03 0.7068303D+02 0.1986108D+02 0.6299305D+01
EXPONENTS  0.2127027D+01 0.4727971D+01 0.1190338D+01 0.3594117D+00 0.4727971D+01
EXPONENTS  0.1190338D+01 0.3594117D+00 0.4727971D+01 0.1190338D+01 0.3594117D+00
EXPONENTS  0.4727971D+01 0.1190338D+01 0.3594117D+00 0.1267512D+00 0.1267512D+00
EXPONENTS  0.1267512D+00 0.1267512D+00 0.6000000D+00 0.6000000D+00 0.6000000D+00
EXPONENTS  0.6000000D+00 0.6000000D+00 0.6000000D+00 0.1873114D+02 0.2825394D+01
EXPONENTS  0.6401217D+00 0.1612778D+00 0.2068882D+04 0.3106496D+03 0.7068303D+02
EXPONENTS  0.1986108D+02 0.6299305D+01 0.2127027D+01 0.4727971D+01 0.1190338D+01
EXPONENTS  0.3594117D+00 0.4727971D+01 0.1190338D+01 0.3594117D+00 0.4727971D+01
EXPONENTS  0.1190338D+01 0.3594117D+00 0.4727971D+01 0.1190338D+01 0.3594117D+00
EXPONENTS  0.1267512D+00 0.1267512D+00 0.1267512D+00 0.1267512D+00 0.6000000D+00
EXPONENTS  0.6000000D+00 0.6000000D+00 0.6000000D+00 0.6000000D+00 0.6000000D+00
EXPONENTS  0.1873114D+02 0.2825394D+01 0.6401217D+00 0.1612778D+00 0.2068882D+04
EXPONENTS  0.3106496D+03 0.7068303D+02 0.1986108D+02 0.6299305D+01 0.2127027D+01
EXPONENTS  0.4727971D+01 0.1190338D+01 0.3594117D+00 0.4727971D+01 0.1190338D+01
EXPONENTS  0.3594117D+00 0.4727971D+01 0.1190338D+01 0.3594117D+00 0.4727971D+01
EXPONENTS  0.1190338D+01 0.3594117D+00 0.1267512D+00 0.1267512D+00 0.1267512D+00
EXPONENTS  0.1267512D+00 0.6000000D+00 0.6000000D+00 0.6000000D+00 0.6000000D+00
EXPONENTS  0.6000000D+00 0.6000000D+00 0.2068882D+04 0.3106496D+03 0.7068303D+02
EXPONENTS  0.1986108D+02 0.6299305D+01 0.2127027D+01 0.4727971D+01 0.1190338D+01
EXPONENTS  0.3594117D+00 0.4727971D+01 0.1190338D+01 0.3594117D+00 0.4727971D+01
EXPONENTS  0.1190338D+01 0.3594117D+00 0.4727971D+01 0.1190338D+01 0.3594117D+00
EXPONENTS  0.1267512D+00 0.1267512D+00 0.1267512D+00 0.1267512D+00 0.6000000D+00
EXPONENTS  0.6000000D+00 0.6000000D+00 0.6000000D+00 0.6000000D+00 0.6000000D+00
EXPONENTS  0.1873114D+02 0.2825394D+01 0.6401217D+00 0.1612778D+00 0.2068882D+04
EXPONENTS  0.3106496D+03 0.7068303D+02 0.1986108D+02 0.6299305D+01 0.2127027D+01
EXPONENTS  0.4727971D+01 0.1190338D+01 0.3594117D+00 0.4727971D+01 0.1190338D+01
EXPONENTS  0.3594117D+00 0.4727971D+01 0.1190338D+01 0.3594117D+00 0.4727971D+01
EXPONENTS  0.1190338D+01 0.3594117D+00 0.1267512D+00 0.1267512D+00 0.1267512D+00
EXPONENTS  0.1267512D+00 0.6000000D+00 0.6000000D+00 0.6000000D+00 0.6000000D+00
EXPONENTS  0.6000000D+00 0.6000000D+00 0.2068882D+04 0.3106496D+03 0.7068303D+02
EXPONENTS  0.1986108D+02 0.6299305D+01 0.2127027D+01 0.4727971D+01 0.1190338D+01
EXPONENTS  0.3594117D+00 0.4727971D+01 0.1190338D+01 0.3594117D+00 0.4727971D+01
EXPONENTS  0.1190338D+01 0.3594117D+00 0.4727971D+01 0.1190338D+01 0.3594117D+00
EXPONENTS  0.1267512D+00 0.1267512D+00 0.1267512D+00 0.1267512D+00 0.6000000D+00
EXPONENTS  0.6000000D+00 0.6000000D+00 0.6000000D+00 0.6000000D+00 0.6000000D+00
EXPONENTS  0.1873114D+02 0.2825394D+01 0.6401217D+00 0.1612778D+00 0.2068882D+04
EXPONENTS  0.3106496D+03 0.7068303D+02 0.1986108D+02 0.6299305D+01 0.2127027D+01
EXPONENTS  0.4727971D+01 0.1190338D+01 0.3594117D+00 0.4727971D+01 0.1190338D+01
EXPONENTS  0.3594117D+00 0.4727971D+01 0.1190338D+01 0.3594117D+00 0.4727971D+01
EXPONENTS  0.1190338D+01 0.3594117D+00 0.1267512D+00 0.1267512D+00 0.1267512D+00
EXPONENTS  0.1267512D+00 0.6000000D+00 0.6000000D+00 0.6000000D+00 0.6000000D+00
EXPONENTS  0.6000000D+00 0.6000000D+00 0.1873114D+02 0.2825394D+01 0.6401217D+00
EXPONENTS  0.1612778D+00 0.2068882D+04 0.3106496D+03 0.7068303D+02 0.1986108D+02
EXPONENTS  0.6299305D+01 0.2127027D+01 0.4727971D+01 0.1190338D+01 0.3594117D+00
EXPONENTS  0.4727971D+01 0.1190338D+01 0.3594117D+00 0.4727971D+01 0.1190338D+01
EXPONENTS  0.3594117D+00 0.4727971D+01 0.1190338D+01 0.3594117D+00 0.1267512D+00
EXPONENTS  0.1267512D+00 0.1267512D+00 0.1267512D+00 0.6000000D+00 0.6000000D+00
EXPONENTS  0.6000000D+00 0.6000000D+00 0.6000000D+00 0.6000000D+00 0.4173511D+04
EXPONENTS  0.6274579D+03 0.1429021D+03 0.4023433D+02 0.1282021D+02 0.4390437D+01
EXPONENTS  0.1162636D+02 0.2716280D+01 0.7722184D+00 0.1162636D+02 0.2716280D+01
EXPONENTS  0.7722184D+00 0.1162636D+02 0.2716280D+01 0.7722184D+00 0.1162636D+02
EXPONENTS  0.2716280D+01 0.7722184D+00 0.2120315D+00 0.2120315D+00 0.2120315D+00
EXPONENTS  0.2120315D+00 0.8000000D+00 0.8000000D+00 0.8000000D+00 0.8000000D+00
EXPONENTS  0.8000000D+00 0.8000000D+00 0.1873114D+02 0.2825394D+01 0.6401217D+00
EXPONENTS  0.1612778D+00 0.4173511D+04 0.6274579D+03 0.1429021D+03 0.4023433D+02
EXPONENTS  0.1282021D+02 0.4390437D+01 0.1162636D+02 0.2716280D+01 0.7722184D+00
EXPONENTS  0.1162636D+02 0.2716280D+01 0.7722184D+00 0.1162636D+02 0.2716280D+01
EXPONENTS  0.7722184D+00 0.1162636D+02 0.2716280D+01 0.7722184D+00 0.2120315D+00
EXPONENTS  0.2120315D+00 0.2120315D+00 0.2120315D+00 0.8000000D+00 0.8000000D+00
EXPONENTS  0.8000000D+00 0.8000000D+00 0.8000000D+00 0.8000000D+00 0.4173511D+04
EXPONENTS  0.6274579D+03 0.1429021D+03 0.4023433D+02 0.1282021D+02 0.4390437D+01
EXPONENTS  0.1162636D+02 0.2716280D+01 0.7722184D+00 0.1162636D+02 0.2716280D+01
EXPONENTS  0.7722184D+00 0.1162636D+02 0.2716280D+01 0.7722184D+00 0.1162636D+02
EXPONENTS  0.2716280D+01 0.7722184D+00 0.2120315D+00 0.2120315D+00 0.2120315D+00
EXPONENTS  0.2120315D+00 0.8000000D+00 0.8000000D+00 0.8000000D+00 0.8000000D+00
EXPONENTS  0.8000000D+00 0.8000000D+00 0.1873114D+02 0.2825394D+01 0.6401217D+00
EXPONENTS  0.1612778D+00 0.4173511D+04 0.6274579D+03 0.1429021D+03 0.4023433D+02
EXPONENTS  0.1282021D+02 0.4390437D+01 0.1162636D+02 0.2716280D+01 0.7722184D+00
EXPONENTS  0.1162636D+02 0.2716280D+01 0.7722184D+00 0.1162636D+02 0.2716280D+01
EXPONENTS  0.7722184D+00 0.1162636D+02 0.2716280D+01 0.7722184D+00 0.2120315D+00
EXPONENTS  0.2120315D+00 0.2120315D+00 0.2120315D+00 0.8000000D+00 0.8000000D+00
EXPONENTS  0.8000000D+00 0.8000000D+00 0.8000000D+00 0.8000000D+00 0.1873114D+02
EXPONENTS  0.2825394D+01 0.6401217D+00 0.1612778D+00 0.4173511D+04 0.6274579D+03
EXPONENTS  0.1429021D+03 0.4023433D+02 0.1282021D+02 0.4390437D+01 0.1162636D+02
EXPONENTS  0.2716280D+01 0.7722184D+00 0.1162636D+02 0.2716280D+01 0.7722184D+00
EXPONENTS  0.1162636D+02 0.2716280D+01 0.7722184D+00 0.1162636D+02 0.2716280D+01
EXPONENTS  0.7722184D+00 0.2120315D+00 0.2120315D+00 0.2120315D+00 0.2120315D+00
EXPONENTS  0.8000000D+00 0.8000000D+00 0.8000000D+00 0.8000000D+00 0.8000000D+00
EXPONENTS  0.8000000D+00 0.1873114D+02 0.2825394D+01 0.6401217D+00 0.1612778D+00
EXPONENTS  0.4173511D+04 0.6274579D+03 0.1429021D+03 0.4023433D+02 0.1282021D+02
EXPONENTS  0.4390437D+01 0.1162636D+02 0.2716280D+01 0.7722184D+00 0.1162636D+02
EXPONENTS  0.2716280D+01 0.7722184D+00 0.1162636D+02 0.2716280D+01 0.7722184D+00
EXPONENTS  0.1162636D+02 0.2716280D+01 0.7722184D+00 0.2120315D+00 0.2120315D+00
EXPONENTS  0.2120315D+00 0.2120315D+00 0.8000000D+00 0.8000000D+00 0.8000000D+00
EXPONENTS  0.8000000D+00 0.8000000D+00 0.8000000D+00 0.1873114D+02 0.2825394D+01
EXPONENTS  0.6401217D+00 0.1612778D+00 0.4173511D+04 0.6274579D+03 0.1429021D+03
EXPONENTS  0.4023433D+02 0.1282021D+02 0.4390437D+01 0.1162636D+02 0.2716280D+01
EXPONENTS  0.7722184D+00 0.1162636D+02 0.2716280D+01 0.7722184D+00 0.1162636D+02
EXPONENTS  0.2716280D+01 0.7722184D+00 0.1162636D+02 0.2716280D+01 0.7722184D+00
EXPONENTS  0.2120315D+00 0.2120315D+00 0.2120315D+00 0.2120315D+00 0.8000000D+00
EXPONENTS  0.8000000D+00 0.8000000D+00 0.8000000D+00 0.8000000D+00 0.8000000D+00
EXPONENTS  0.4173511D+04 0.6274579D+03 0.1429021D+03 0.4023433D+02 0.1282021D+02
EXPONENTS  0.4390437D+01 0.1162636D+02 0.2716280D+01 0.7722184D+00 0.1162636D+02
EXPONENTS  0.2716280D+01 0.7722184D+00 0.1162636D+02 0.2716280D+01 0.7722184D+00
EXPONENTS  0.1162636D+02 0.2716280D+01 0.7722184D+00 0.2120315D+00 0.2120315D+00
EXPONENTS  0.2120315D+00 0.2120315D+00 0.8000000D+00 0.8000000D+00 0.8000000D+00
EXPONENTS  0.8000000D+00 0.8000000D+00 0.8000000D+00
MO    1     MO 0.0        OCC NO =    2.0000000  ORB. ENERGY =  -14.314300
 -0.32472369D-06 -0.59813564D-06 -0.96167919D-06 -0.12410747D-05 -0.10534069D-05
 -0.36306872D-06  0.12146458D-05  0.43302237D-06 -0.15251833D-05 -0.11421040D-05
 -0.84054238D-06 -0.45434253D-06  0.23069095D-05  0.16977921D-05  0.91771598D-06
 -0.65588747D-09 -0.48270668D-09 -0.26091983D-09  0.13388682D-05  0.83127499D-06
  0.74789387D-06  0.23383212D-09 -0.19346675D-05 -0.17790221D-06 -0.72387313D-07
  0.35202433D-05 -0.19144182D-09  0.29919296D-09 -0.46553387D-07 -0.78963356D-07
 -0.89896990D-07  0.81784950D-06 -0.16086389D-06 -0.29630862D-06 -0.47640337D-06
 -0.61481227D-06 -0.52184407D-06 -0.17985953D-06  0.10805771D-05  0.38522675D-06
 -0.13568385D-05  0.76450882D-06  0.56264760D-06  0.30413069D-06  0.61886846D-06
  0.45546218D-06  0.24619322D-06  0.32445857D-09  0.23878840D-09  0.12907347D-09
  0.42787663D-05  0.23244495D-05  0.25695927D-05 -0.16241684D-09 -0.19710274D-05
  0.12547076D-05  0.37474113D-07  0.24464323D-05 -0.11875073D-08 -0.17666085D-09
 -0.72694789D-07 -0.12330412D-06 -0.14037738D-06  0.22846912D-05 -0.13139628D-07
 -0.24202977D-07 -0.38913413D-07 -0.50218880D-07 -0.42625084D-07 -0.14691223D-07
  0.13084463D-05  0.46646234D-06 -0.16429650D-05  0.48501174D-05  0.35694904D-05
  0.19294343D-05 -0.20144350D-06 -0.14825427D-06 -0.80136616D-07 -0.70265721D-09
 -0.51712731D-09 -0.27952538D-09 -0.99358304D-05  0.57872869D-06 -0.21840716D-05
 -0.13040376D-08  0.47323773D-05  0.34353651D-05 -0.72895386D-06 -0.87848524D-05
 -0.16961594D-08  0.96159850D-09  0.74429531D-06  0.13709796D-05  0.22042535D-05
  0.28446526D-05  0.24145013D-05  0.83218551D-06 -0.18195723D-05 -0.64867924D-06
  0.22847659D-05 -0.42210911D-05 -0.31065525D-05 -0.16792002D-05 -0.12431458D-05
 -0.91490510D-06 -0.49453818D-06  0.75709342D-08  0.55719017D-08  0.30118075D-08
 -0.65902819D-05 -0.29115610D-05 -0.41145586D-05 -0.16506406D-08  0.39703055D-05
  0.87835648D-05 -0.14540249D-06 -0.30659144D-05 -0.59492779D-08  0.60297042D-08
  0.17661133D-06  0.29956624D-06  0.34104557D-06  0.45798399D-05  0.31613835D-05
  0.58232159D-05  0.93625345D-05  0.12082620D-04  0.10255559D-04  0.35346959D-05
 -0.51902880D-04 -0.18503425D-04  0.65172420D-04 -0.15447163D-03 -0.11368488D-03
 -0.61450650D-04  0.24914238D-03  0.18335872D-03  0.99111796D-04  0.11246953D-07
  0.82773028D-08  0.44741714D-08 -0.67803834D-04  0.35816302D-04 -0.38704445D-04
 -0.31439064D-08  0.58466996D-04  0.15608064D-03 -0.35653738D-04 -0.17955866D-03
 -0.15823325D-07  0.20285814D-07  0.24169463D-05  0.44519750D-05  0.71578609D-05
  0.92374255D-05  0.78405977D-05  0.27023517D-05 -0.48328104D-04 -0.17229014D-04
  0.60683713D-04  0.31971211D-03  0.23529519D-03  0.12718527D-03 -0.29600508D-04
 -0.21784778D-04 -0.11775434D-04  0.44155577D-07  0.32496720D-07  0.17565613D-07
 -0.78612870D-04 -0.35695438D-04 -0.61541946D-05 -0.48693518D-08  0.20812056D-03
 -0.22920558D-04 -0.39702577D-04  0.92998582D-05  0.67461460D-07  0.46222927D-08
  0.24118288D-05  0.40909182D-05  0.46573657D-05  0.89673818D-05 -0.11012587D-05
 -0.20285003D-05 -0.32614115D-05 -0.42089455D-05 -0.35724941D-05 -0.12313010D-05
  0.47725678D-05  0.17014249D-05 -0.59927270D-05 -0.65649655D-05 -0.48315493D-05
 -0.26116212D-05 -0.24481634D-05 -0.18017493D-05 -0.97390848D-06 -0.28069517D-09
 -0.20658030D-09 -0.11166387D-09 -0.73101622D-05 -0.61242389D-05 -0.33885971D-05
 -0.95879545D-09  0.55911452D-05 -0.19365318D-05 -0.28645147D-05 -0.30140249D-05
  0.26766694D-08 -0.97786600D-09  0.14734033D-05  0.24991709D-05  0.28452177D-05
 -0.37055033D-05  0.20910532D-05  0.38516853D-05  0.61927183D-05  0.79918813D-05
  0.67833972D-05  0.23379755D-05 -0.89482727D-05 -0.31900675D-05  0.11235997D-04
  0.67780785D-05  0.49883919D-05  0.26964001D-05  0.18713802D-04  0.13772602D-04
  0.74445728D-05  0.14985585D-08  0.11028785D-08  0.59614436D-09  0.25913845D-04
  0.85971687D-05  0.16350615D-04  0.53987999D-09  0.56242428D-05  0.69505639D-05
  0.32362642D-05 -0.28925561D-06 -0.55789369D-09 -0.16542986D-08 -0.10999423D-04
 -0.20256357D-04 -0.32728754D-04 -0.42834904D-04 -0.36691934D-04 -0.12622450D-04
 -0.25688392D-05 -0.12699078D-05  0.33499354D-05  0.41505815D-05  0.32312940D-05
  0.15343327D-05  0.40263059D-05  0.31345435D-05  0.14883921D-05 -0.37156913D-09
 -0.28927250D-09 -0.13735681D-09 -0.82558688D-05 -0.17499323D-05 -0.32187131D-05
  0.39150118D-09  0.29152344D-05  0.42205213D-05  0.51460113D-05  0.22201087D-06
 -0.31594747D-09  0.11392768D-08  0.20463649D-06  0.34710222D-06  0.39516361D-06
 -0.15327310D-05  0.24190687D-05  0.44549171D-05  0.71979323D-05  0.94205461D-05
  0.80695420D-05  0.27760159D-05 -0.97781427D-06 -0.48338331D-06  0.12751342D-05
  0.43526701D-05  0.33886232D-05  0.16090381D-05  0.55308191D-05  0.43058310D-05
  0.20445608D-05  0.46074662D-09  0.35869860D-09  0.17032278D-09  0.49518944D-05
 -0.27368781D-05 -0.18760217D-05 -0.79593547D-09  0.27061380D-05 -0.36182836D-06
  0.48189563D-05 -0.36326744D-05 -0.13224545D-08 -0.11214201D-08 -0.39973063D-02
 -0.73613735D-02 -0.11893974D-01 -0.15566655D-01 -0.13334235D-01 -0.45871314D-02
  0.10517814D-03  0.51994904D-04 -0.13715922D-03 -0.44981599D-05 -0.35018893D-05
 -0.16628209D-05  0.72245054D-05  0.56243928D-05  0.26706606D-05  0.30051683D-08
  0.23395716D-08  0.11109113D-08 -0.92674812D-05  0.22739822D-05 -0.12326526D-05
  0.26796889D-10  0.57468024D-04  0.57329998D-04  0.58960306D-04  0.27112573D-05
  0.10265609D-08 -0.18262189D-09 -0.53939770D-06 -0.91492059D-06 -0.10416048D-05
 -0.27899724D-06  0.44383473D-04  0.81735874D-04  0.13206290D-03  0.17284195D-03
  0.14805462D-03  0.50932505D-04 -0.67989088D-05 -0.33610463D-05  0.88662247D-05
 -0.38460791D-05 -0.29942340D-05 -0.14217682D-05  0.86232441D-05  0.67133333D-05
  0.31877281D-05  0.62970400D-10  0.49023462D-10  0.23278074D-10 -0.12429113D-04
  0.28562910D-05 -0.10038227D-04  0.29914691D-09  0.16449277D-05  0.17843615D-05
  0.95699594D-05 -0.55427308D-05  0.38118083D-08  0.65778209D-08 -0.11424623D-05
 -0.19378323D-05 -0.22061536D-05 -0.32691158D-05 -0.10452874D-02 -0.19249840D-02
 -0.31102497D-02 -0.40706482D-02 -0.34868750D-02 -0.11995254D-02 -0.38300669D-05
 -0.18933968D-05  0.49946595D-05 -0.15058025D-04 -0.11722913D-04 -0.55664539D-05
  0.16001847D-04  0.12457694D-04  0.59153536D-05  0.39168716D-08  0.30493471D-08
  0.14479379D-08 -0.48070157D-04  0.23139082D-04 -0.47704132D-05 -0.37202165D-08
 -0.18705057D-04  0.95056240D-05  0.56023671D-04  0.27697335D-04  0.20321024D-07
 -0.15139132D-08  0.30840087D-05  0.52310624D-05  0.59553797D-05  0.59652414D-05
  0.67393764D+00  0.12411125D+01  0.20052996D+01  0.26245061D+01  0.22481247D+01
  0.77338095D+00 -0.17982671D-01 -0.88897485D-02  0.23450587D-01  0.52496395D-03
  0.40869282D-03  0.19406181D-03  0.75271456D-03  0.58600031D-03  0.27825367D-03
  0.14428481D-06  0.11232803D-06  0.53337320D-07  0.10317487D-02 -0.16859904D-04
 -0.27106440D-04 -0.46209910D-08 -0.96349065D-02 -0.95196752D-02 -0.94684441D-02
  0.18658395D-03 -0.24589993D-07  0.71459344D-08  0.59062391D-04  0.10018099D-03
  0.11405252D-03 -0.66672959D-04 -0.52983701D-04 -0.97573912D-04 -0.15765286D-03
 -0.20633370D-03 -0.17674331D-03 -0.60801746D-04 -0.29838955D-04 -0.14750912D-04
  0.38911962D-04  0.32794367D-04  0.25530939D-04  0.12122993D-04 -0.21337660D-06
 -0.16611709D-06 -0.78878271D-07  0.59842044D-08  0.46587987D-08  0.22121624D-08
 -0.35474698D-04 -0.34160485D-04 -0.72631211D-06 -0.53753667D-08 -0.34929013D-04
 -0.17004287D-04  0.34780459D-04 -0.33885327D-04 -0.20444240D-07 -0.68028509D-08
 -0.39566042D-04 -0.72864172D-04 -0.11772865D-03 -0.15408150D-03 -0.13198461D-03
 -0.45404235D-04 -0.31467429D-04 -0.15555950D-04  0.41035599D-04 -0.11187386D-04
 -0.87095585D-05 -0.41356065D-05  0.23948560D-04  0.18644337D-04  0.88529906D-05
  0.10085016D-08  0.78513457D-09  0.37280967D-09 -0.36889647D-04  0.54366525D-05
 -0.25994391D-04  0.11015125D-08 -0.61781867D-05 -0.48701565D-04  0.37538721D-04
 -0.40220463D-05 -0.18928776D-08 -0.50585976D-08
MO    2     MO 0.0        OCC NO =    2.0000000  ORB. ENERGY =  -14.314299
 -0.11049412D-05 -0.20352833D-05 -0.32723173D-05 -0.42230196D-05 -0.35844401D-05
 -0.12354183D-05  0.47866522D-05  0.17064460D-05 -0.60104122D-05 -0.65777568D-05
 -0.48409632D-05 -0.26167098D-05  0.24752654D-05  0.18216953D-05  0.98468996D-06
 -0.23194359D-08 -0.17070111D-08 -0.92269916D-09 -0.72935910D-05 -0.61153759D-05
  0.34013701D-05 -0.19136481D-08  0.55708081D-05 -0.19376419D-05 -0.28653592D-05
  0.30554273D-05 -0.82311995D-09  0.69189544D-09  0.14732038D-05  0.24988324D-05
  0.28448324D-05 -0.36943644D-05  0.24148209D-05  0.44480601D-05  0.71515665D-05
  0.92293024D-05  0.78337030D-05  0.26999754D-05 -0.48314875D-04 -0.17224298D-04
  0.60667102D-04  0.31974253D-03  0.23531758D-03  0.12719737D-03  0.29620432D-04
  0.21799441D-04  0.11783359D-04 -0.18285709D-07 -0.13457543D-07 -0.72742720D-08
 -0.78576859D-04 -0.35677462D-04  0.61858783D-05 -0.59271372D-08  0.20811491D-03
 -0.22907404D-04 -0.39704805D-04 -0.92567594D-05 -0.27611116D-07 -0.13862352D-07
  0.24118150D-05  0.40908946D-05  0.46573390D-05  0.89950727D-05  0.31639719D-05
  0.58279838D-05  0.93702002D-05  0.12092513D-04  0.10263956D-04  0.35375899D-05
 -0.51903120D-04 -0.18503511D-04  0.65172721D-04 -0.15442538D-03 -0.11365084D-03
 -0.61432249D-04 -0.24917990D-03 -0.18338634D-03 -0.99126723D-04  0.49815582D-07
  0.36662255D-07  0.19817230D-07 -0.67925258D-04  0.35824080D-04  0.38669068D-04
 -0.16446020D-07  0.58524813D-04  0.15612916D-03 -0.35667246D-04  0.17944734D-03
 -0.48083481D-07 -0.59238866D-07  0.75286955D-06  0.13867732D-05  0.22296464D-05
  0.28774228D-05  0.24423163D-05  0.84177225D-06 -0.18397513D-05 -0.65587307D-06
  0.23101039D-05 -0.42728882D-05 -0.31446731D-05 -0.16998057D-05  0.12261191D-05
  0.90237412D-06  0.48776474D-06  0.60026218D-09  0.44176871D-09  0.23879142D-09
 -0.66684687D-05 -0.29463506D-05  0.40658602D-05  0.10838683D-08  0.40175690D-05
  0.88936138D-05 -0.14825804D-06  0.30340222D-05 -0.75757207D-08  0.27283249D-08
  0.17885575D-06  0.30337321D-06  0.34537967D-06  0.46344778D-05  0.23768410D-07
  0.43781018D-07  0.70390879D-07  0.90841456D-07  0.77104958D-07  0.26575106D-07
  0.69481465D-06  0.24770207D-06 -0.87245162D-06  0.30196046D-05  0.22223070D-05
  0.12012346D-05  0.31605905D-05  0.23260669D-05  0.12573204D-05 -0.73753534D-08
 -0.54279621D-08 -0.29340032D-08 -0.10740163D-04  0.10076067D-05  0.17214974D-05
  0.19918617D-08  0.54271719D-05  0.52838826D-05 -0.11533073D-05  0.66563392D-05
  0.37868163D-08  0.36250580D-08 -0.13211387D-06 -0.24335155D-06 -0.39125928D-06
 -0.50493137D-06 -0.42857869D-06 -0.14771455D-06  0.50687723D-06  0.18070220D-06
 -0.63646594D-06  0.45571928D-05  0.33539098D-05  0.18129054D-05 -0.97080518D-06
 -0.71447339D-06 -0.38619783D-06  0.15795871D-08  0.11625123D-08  0.62837852D-09
  0.33474885D-05  0.19017813D-05 -0.26427189D-05  0.28270969D-09  0.49827500D-06
  0.98282983D-06 -0.43352587D-06 -0.23361199D-05  0.13506988D-08  0.37193880D-09
 -0.44056535D-07 -0.74728223D-07 -0.85075440D-07  0.23911215D-05 -0.33790827D-06
 -0.62242143D-06 -0.10007257D-05 -0.12914654D-05 -0.10961778D-05 -0.37781021D-06
  0.12717471D-05  0.45337904D-06 -0.15968832D-05 -0.12206957D-05 -0.89838270D-06
 -0.48560724D-06 -0.23364006D-05 -0.17194965D-05 -0.92944793D-06 -0.91948362D-09
 -0.67670279D-09 -0.36578150D-09  0.12515943D-05  0.75901685D-06 -0.78761161D-06
  0.27348486D-09 -0.18689058D-05 -0.20100229D-06 -0.10636548D-06 -0.35569228D-05
  0.24193029D-10 -0.41725695D-09 -0.29107261D-07 -0.49371424D-07 -0.56207621D-07
  0.77390485D-06  0.21160929D-05  0.38978081D-05  0.62668743D-05  0.80875817D-05
  0.68646264D-05  0.23659720D-05 -0.90561501D-05 -0.32285259D-05  0.11371454D-04
  0.68618207D-05  0.50500228D-05  0.27297138D-05 -0.18491926D-04 -0.13609310D-04
 -0.73563077D-05 -0.14622045D-08 -0.10761235D-08 -0.58168233D-09  0.26225538D-04
  0.87041620D-05 -0.16156431D-04 -0.10454494D-10  0.56917594D-05  0.70313392D-05
  0.32746247D-05  0.28713874D-06  0.42890835D-09  0.17322028D-08 -0.11168461D-04
 -0.20567654D-04 -0.33231725D-04 -0.43493185D-04 -0.37255811D-04 -0.12816430D-04
 -0.25998926D-05 -0.12852591D-05  0.33904311D-05  0.42006842D-05  0.32702997D-05
  0.15528540D-05 -0.39799227D-05 -0.30984334D-05 -0.14712458D-05 -0.94185691D-09
 -0.73325064D-09 -0.34817334D-09 -0.83595211D-05 -0.17718368D-05  0.31831131D-05
  0.56807359D-09  0.29521871D-05  0.42725196D-05  0.52097611D-05 -0.21776573D-06
 -0.56993017D-10 -0.12622775D-08  0.20717018D-06  0.35139983D-06  0.40005629D-06
 -0.15513229D-05 -0.52966592D-04 -0.97542405D-04 -0.15760195D-03 -0.20626708D-03
 -0.17668624D-03 -0.60782112D-04 -0.29853175D-04 -0.14757942D-04  0.38930506D-04
  0.32844958D-04  0.25570324D-04  0.12141694D-04  0.27771247D-06  0.21620359D-06
  0.10266111D-06 -0.67877603D-08 -0.52843798D-08 -0.25092104D-08 -0.35417465D-04
 -0.34194151D-04  0.70573115D-06  0.21078350D-08 -0.34906648D-04 -0.17008671D-04
  0.34838865D-04  0.33847715D-04 -0.27612641D-08  0.13906324D-07  0.67393764D+00
  0.12411125D+01  0.20052996D+01  0.26245061D+01  0.22481247D+01  0.77338095D+00
 -0.17982709D-01 -0.88897675D-02  0.23450637D-01  0.52507807D-03  0.40878166D-03
  0.19410399D-03 -0.75262831D-03 -0.58593316D-03 -0.27822179D-03 -0.51380184D-06
 -0.40000293D-06 -0.18993554D-06  0.10317133D-02 -0.16855094D-04  0.27083994D-04
  0.25658597D-07 -0.96349147D-02 -0.95196955D-02 -0.94684336D-02 -0.18657976D-03
  0.23694640D-07  0.68042562D-07  0.59060592D-04  0.10017794D-03  0.11404905D-03
 -0.66681166D-04 -0.10445939D-02 -0.19237069D-02 -0.31081863D-02 -0.40679477D-02
 -0.34845618D-02 -0.11987296D-02 -0.39197119D-05 -0.19377129D-05  0.51115624D-05
 -0.15091749D-04 -0.11749167D-04 -0.55789202D-05 -0.15898096D-04 -0.12376921D-04
 -0.58770000D-05 -0.28650057D-08 -0.22304527D-08 -0.10590978D-08 -0.48219854D-04
  0.23173288D-04  0.46573836D-05  0.32159328D-08 -0.18704287D-04  0.95099329D-05
  0.56131910D-04 -0.27790374D-04  0.23823256D-07  0.65595717D-08  0.30719922D-05
  0.52106802D-05  0.59321752D-05  0.59288221D-05  0.32098122D-04  0.59111374D-04
  0.95507877D-04  0.12499928D-03  0.10707309D-03  0.36834382D-04 -0.68496824D-05
 -0.33861463D-05  0.89324368D-05 -0.40262745D-05 -0.31345190D-05 -0.14883805D-05
 -0.84345212D-05 -0.65664094D-05 -0.31179635D-05 -0.67021559D-09 -0.52177354D-09
 -0.24775653D-09 -0.13006691D-04  0.31330783D-05  0.99832266D-05  0.66022643D-09
  0.14223849D-05  0.18975933D-05  0.10236007D-04  0.58728520D-05  0.69652628D-08
 -0.63538614D-08 -0.11059289D-05 -0.18758648D-05 -0.21356057D-05 -0.31987441D-05
  0.39983012D-02  0.73632058D-02  0.11896935D-01  0.15570530D-01  0.13337554D-01
  0.45882732D-02 -0.10816729D-03 -0.53472589D-04  0.14105726D-03  0.17301610D-05
  0.13469580D-05  0.63958331D-06  0.17052549D-05  0.13275682D-05  0.63037633D-06
  0.55024047D-08  0.42837100D-08  0.20340570D-08  0.29789562D-05  0.20757997D-05
  0.90919770D-06 -0.16891822D-08 -0.56842103D-04 -0.55612563D-04 -0.53375093D-04
 -0.50030520D-06 -0.17636743D-09  0.15547499D-08  0.16124147D-06  0.27349606D-06
  0.31136559D-06 -0.10698523D-05  0.17908044D-05  0.32979160D-05  0.53285337D-05
  0.69739052D-05  0.59737748D-05  0.20550477D-05 -0.13318794D-05 -0.65841569D-06
  0.17368584D-05  0.47436586D-05  0.36930140D-05  0.17535737D-05 -0.55335618D-05
 -0.43079662D-05 -0.20455747D-05  0.82949461D-09  0.64577480D-09  0.30663672D-09
  0.45316536D-05 -0.31439241D-05  0.18664882D-05 -0.17583925D-09  0.22923502D-05
 -0.56290509D-06  0.52319617D-05  0.32300631D-05 -0.94994549D-09 -0.13379596D-09
 -0.40043137D-04 -0.73742782D-04 -0.11914825D-03 -0.15593944D-03 -0.13357611D-03
 -0.45951728D-04 -0.31841034D-04 -0.15740642D-04  0.41522805D-04 -0.11328625D-04
 -0.88195159D-05 -0.41878181D-05 -0.23664484D-04 -0.18423179D-04 -0.87479769D-05
 -0.11150145D-07 -0.86805660D-08 -0.41218398D-08 -0.37324544D-04  0.55090428D-05
  0.25687677D-04  0.98624871D-08 -0.62521650D-05 -0.49286248D-04  0.37985174D-04
  0.39781794D-05  0.18791709D-07 -0.59274974D-08
MO    3     MO 0.0        OCC NO =    2.0000000  ORB. ENERGY =  -14.313937