 Generated by Multiwfn
GAUSSIAN             43 MOL ORBITALS    192 PRIMITIVES       12 NUCLEI
  C    1    (CENTRE  1)  -2.23916664 -1.37622261  0.00000189  CHARGE =  6.0
  C    2    (CENTRE  2)   0.07248833 -2.62706155  0.00000042  CHARGE =  6.0
  C    3    (CENTRE  3)   2.31149292 -1.25092553  0.00001140  CHARGE =  6.0
  C    4    (CENTRE  4)   2.23910705  1.37631925  0.00000106  CHARGE =  6.0
  C    5    (CENTRE  5)  -0.07237604  2.62706426 -0.00000627  CHARGE =  6.0
  C    6    (CENTRE  6)  -2.31154670  1.25082670  0.00000011  CHARGE =  6.0
  H    7    (CENTRE  7)  -3.98087944 -2.44733165 -0.00001039  CHARGE =  1.0
  H    8    (CENTRE  8)   0.12880213 -4.67101895 -0.00002338  CHARGE =  1.0
  H    9    (CENTRE  9)   4.10987627 -2.22388247 -0.00002372  CHARGE =  1.0
  H   10    (CENTRE 10)   3.98096145  2.44719695 -0.00000771  CHARGE =  1.0
  H   11    (CENTRE 11)  -0.12895092  4.67101421 -0.00000070  CHARGE =  1.0
  H   12    (CENTRE 12)  -4.10980304  2.22401887  0.00001425  CHARGE =  1.0
CENTRE ASSIGNMENTS    1  1  1  1  1  1  1  1  1  1  1  1  1  1  1  1  1  1  1  1
CENTRE ASSIGNMENTS    1  1  1  1  1  1  1  1  2  2  2  2  2  2  2  2  2  2  2  2
CENTRE ASSIGNMENTS    2  2  2  2  2  2  2  2  2  2  2  2  2  2  2  2  3  3  3  3
CENTRE ASSIGNMENTS    3  3  3  3  3  3  3  3  3  3  3  3  3  3  3  3  3  3  3  3
CENTRE ASSIGNMENTS    3  3  3  3  4  4  4  4  4  4  4  4  4  4  4  4  4  4  4  4
CENTRE ASSIGNMENTS    4  4  4  4  4  4  4  4  4  4  4  4  5  5  5  5  5  5  5  5
CENTRE ASSIGNMENTS    5  5  5  5  5  5  5  5  5  5  5  5  5  5  5  5  5  5  5  5
CENTRE ASSIGNMENTS    6  6  6  6  6  6  6  6  6  6  6  6  6  6  6  6  6  6  6  6
CENTRE ASSIGNMENTS    6  6  6  6  6  6  6  6  7  7  7  7  8  8  8  8  9  9  9  9
CENTRE ASSIGNMENTS   10 10 10 10 11 11 11 11 12 12 12 12
TYPE ASSIGNMENTS      1  1  1  1  1  1  1  1  1  2  2  2  3  3  3  4  4  4  1  2
TYPE ASSIGNMENTS      3  4  5  6  7  8  9 10  1  1  1  1  1  1  1  1  1  2  2  2
TYPE ASSIGNMENTS      3  3  3  4  4  4  1  2  3  4  5  6  7  8  9 10  1  1  1  1
TYPE ASSIGNMENTS      1  1  1  1  1  2  2  2  3  3  3  4  4  4  1  2  3  4  5  6
TYPE ASSIGNMENTS      7  8  9 10  1  1  1  1  1  1  1  1  1  2  2  2  3  3  3  4
TYPE ASSIGNMENTS      4  4  1  2  3  4  5  6  7  8  9 10  1  1  1  1  1  1  1  1
TYPE ASSIGNMENTS      1  2  2  2  3  3  3  4  4  4  1  2  3  4  5  6  7  8  9 10
TYPE ASSIGNMENTS      1  1  1  1  1  1  1  1  1  2  2  2  3  3  3  4  4  4  1  2
TYPE ASSIGNMENTS      3  4  5  6  7  8  9 10  1  1  1  1  1  1  1  1  1  1  1  1
TYPE ASSIGNMENTS      1  1  1  1  1  1  1  1  1  1  1  1
EXPONENTS  0.3047525D+04 0.4573695D+03 0.1039487D+03 0.2921016D+02 0.9286663D+01
EXPONENTS  0.3163927D+01 0.7868272D+01 0.1881289D+01 0.5442493D+00 0.7868272D+01
EXPONENTS  0.1881289D+01 0.5442493D+00 0.7868272D+01 0.1881289D+01 0.5442493D+00
EXPONENTS  0.7868272D+01 0.1881289D+01 0.5442493D+00 0.1687145D+00 0.1687145D+00
EXPONENTS  0.1687145D+00 0.1687145D+00 0.8000000D+00 0.8000000D+00 0.8000000D+00
EXPONENTS  0.8000000D+00 0.8000000D+00 0.8000000D+00 0.3047525D+04 0.4573695D+03
EXPONENTS  0.1039487D+03 0.2921016D+02 0.9286663D+01 0.3163927D+01 0.7868272D+01
EXPONENTS  0.1881289D+01 0.5442493D+00 0.7868272D+01 0.1881289D+01 0.5442493D+00
EXPONENTS  0.7868272D+01 0.1881289D+01 0.5442493D+00 0.7868272D+01 0.1881289D+01
EXPONENTS  0.5442493D+00 0.1687145D+00 0.1687145D+00 0.1687145D+00 0.1687145D+00
EXPONENTS  0.8000000D+00 0.8000000D+00 0.8000000D+00 0.8000000D+00 0.8000000D+00
EXPONENTS  0.8000000D+00 0.3047525D+04 0.4573695D+03 0.1039487D+03 0.2921016D+02
EXPONENTS  0.9286663D+01 0.3163927D+01 0.7868272D+01 0.1881289D+01 0.5442493D+00
EXPONENTS  0.7868272D+01 0.1881289D+01 0.5442493D+00 0.7868272D+01 0.1881289D+01
EXPONENTS  0.5442493D+00 0.7868272D+01 0.1881289D+01 0.5442493D+00 0.1687145D+00
EXPONENTS  0.1687145D+00 0.1687145D+00 0.1687145D+00 0.8000000D+00 0.8000000D+00
EXPONENTS  0.8000000D+00 0.8000000D+00 0.8000000D+00 0.8000000D+00 0.3047525D+04
EXPONENTS  0.4573695D+03 0.1039487D+03 0.2921016D+02 0.9286663D+01 0.3163927D+01
EXPONENTS  0.7868272D+01 0.1881289D+01 0.5442493D+00 0.7868272D+01 0.1881289D+01
EXPONENTS  0.5442493D+00 0.7868272D+01 0.1881289D+01 0.5442493D+00 0.7868272D+01
EXPONENTS  0.1881289D+01 0.5442493D+00 0.1687145D+00 0.1687145D+00 0.1687145D+00
EXPONENTS  0.1687145D+00 0.8000000D+00 0.8000000D+00 0.8000000D+00 0.8000000D+00
EXPONENTS  0.8000000D+00 0.8000000D+00 0.3047525D+04 0.4573695D+03 0.1039487D+03
EXPONENTS  0.2921016D+02 0.9286663D+01 0.3163927D+01 0.7868272D+01 0.1881289D+01
EXPONENTS  0.5442493D+00 0.7868272D+01 0.1881289D+01 0.5442493D+00 0.7868272D+01
EXPONENTS  0.1881289D+01 0.5442493D+00 0.7868272D+01 0.1881289D+01 0.5442493D+00
EXPONENTS  0.1687145D+00 0.1687145D+00 0.1687145D+00 0.1687145D+00 0.8000000D+00
EXPONENTS  0.8000000D+00 0.8000000D+00 0.8000000D+00 0.8000000D+00 0.8000000D+00
EXPONENTS  0.3047525D+04 0.4573695D+03 0.1039487D+03 0.2921016D+02 0.9286663D+01
EXPONENTS  0.3163927D+01 0.7868272D+01 0.1881289D+01 0.5442493D+00 0.7868272D+01
EXPONENTS  0.1881289D+01 0.5442493D+00 0.7868272D+01 0.1881289D+01 0.5442493D+00
EXPONENTS  0.7868272D+01 0.1881289D+01 0.5442493D+00 0.1687145D+00 0.1687145D+00
EXPONENTS  0.1687145D+00 0.1687145D+00 0.8000000D+00 0.8000000D+00 0.8000000D+00
EXPONENTS  0.8000000D+00 0.8000000D+00 0.8000000D+00 0.1873114D+02 0.2825394D+01
EXPONENTS  0.6401217D+00 0.1612778D+00 0.1873114D+02 0.2825394D+01 0.6401217D+00
EXPONENTS  0.1612778D+00 0.1873114D+02 0.2825394D+01 0.6401217D+00 0.1612778D+00
EXPONENTS  0.1873114D+02 0.2825394D+01 0.6401217D+00 0.1612778D+00 0.1873114D+02
EXPONENTS  0.2825394D+01 0.6401217D+00 0.1612778D+00 0.1873114D+02 0.2825394D+01
EXPONENTS  0.6401217D+00 0.1612778D+00
MO    1     MO 0.0        OCC NO =    1.0000000  ORB. ENERGY =   -9.956088
  0.41455916D-02  0.76478071D-02  0.12345932D-01  0.16070735D-01  0.13713187D-01
  0.47348340D-02  0.27439090D-04  0.12646652D-04 -0.35462531D-04 -0.35611625D-03
 -0.27304736D-03 -0.13626977D-03  0.10979381D-03  0.84182933D-04  0.42013183D-04
 -0.11367728D-08 -0.87160530D-09 -0.43499213D-09  0.82318406D-03  0.32726757D-03
 -0.24894261D-04  0.80369268D-09 -0.31537685D-03 -0.35588555D-03 -0.25284927D-03
  0.18432303D-03 -0.25402554D-09 -0.89684869D-09  0.42381844D+00  0.78186226D+00
  0.12621681D+01  0.16429679D+01  0.14019474D+01  0.48405876D+00 -0.15681123D-01
 -0.72274154D-02  0.20266427D-01 -0.23748654D-03 -0.18208962D-03 -0.90875480D-04
 -0.20497804D-03 -0.15716416D-03 -0.78435931D-04  0.14782165D-09  0.11334026D-09
  0.56564735D-10 -0.19040369D-02  0.15266223D-03 -0.17214350D-03 -0.13050380D-08
 -0.84111504D-02 -0.83987722D-02 -0.85737315D-02 -0.62650756D-04 -0.41472058D-08
  0.20583598D-08  0.32079914D+00  0.59181176D+00  0.95536769D+00  0.12436049D+01
  0.10611703D+01  0.36639660D+00 -0.11778453D-01 -0.54286784D-02  0.15222581D-01
  0.35485563D-03  0.27208079D-03  0.13578738D-03  0.14139196D-03  0.10841039D-03
  0.54104381D-04 -0.12054933D-07 -0.92429580D-08 -0.46128839D-08 -0.88180815D-03
 -0.16471642D-03 -0.13073246D-03  0.42271410D-08 -0.64924369D-02 -0.64666195D-02
 -0.65702637D-02 -0.10759274D-03 -0.58533214D-08  0.84979257D-09  0.32166938D-02
  0.59341719D-02  0.95795934D-02  0.12469784D-01  0.10640490D-01  0.36739053D-02
  0.42710608D-05  0.19685280D-05 -0.55199580D-05  0.54110324D-04  0.41488364D-04
  0.20705601D-04  0.29139951D-03  0.22342666D-03  0.11150556D-03  0.40360551D-09
  0.30945910D-09  0.15444178D-09  0.36504691D-03  0.13588455D-04 -0.16252344D-03
 -0.10387939D-08 -0.20251490D-03 -0.27458254D-03 -0.17972176D-03  0.12841943D-03
  0.19602612D-08  0.46473802D-08  0.22664114D-01  0.41810864D-01  0.67495699D-01
  0.87859345D-01  0.74970538D-01  0.25885525D-01 -0.78178516D-03 -0.36032407D-03
  0.10103863D-02 -0.71042576D-05 -0.54470941D-05 -0.27184817D-05  0.59115599D-04
  0.45326092D-04  0.22620897D-04  0.85606048D-09  0.65637288D-09  0.32757607D-09
  0.35767019D-04  0.33998263D-05 -0.60177826D-04  0.45822699D-09 -0.40241168D-03
 -0.42149455D-03 -0.51764627D-03 -0.52360327D-04  0.13401373D-08 -0.95716654D-09
  0.18208172D-01  0.33590522D-01  0.54225518D-01  0.70585513D-01  0.60230746D-01
  0.20796229D-01 -0.64219012D-03 -0.29598484D-03  0.82997239D-03 -0.46674761D-04
 -0.35787247D-04 -0.17860344D-04  0.38525379D-04  0.29538817D-04  0.14741940D-04
  0.12432318D-08  0.95323128D-09  0.47572921D-09 -0.22617818D-03 -0.69341862D-04
  0.34360109D-04 -0.60452171D-09 -0.34654639D-03 -0.28615898D-03 -0.40103158D-03
 -0.34727331D-04 -0.56180231D-09  0.70385001D-09 -0.54983554D-05 -0.93262514D-05
 -0.10617608D-04  0.65066535D-04 -0.80338875D-04 -0.13626994D-03 -0.15513851D-03
  0.25034747D-03 -0.58028352D-04 -0.98427068D-04 -0.11205574D-03  0.24054548D-03
 -0.97712835D-05 -0.16573946D-04 -0.18868852D-04  0.19839115D-04 -0.30586182D-05
 -0.51879953D-05 -0.59063493D-05  0.48577485D-04 -0.78675454D-05 -0.13344846D-04
 -0.15192636D-04  0.96375261D-05
MO    2     MO 0.0        OCC NO =    1.0000000  ORB. ENERGY =   -9.956080
  0.27835278D-02  0.51350652D-02  0.82895875D-02  0.10790580D-01  0.92076214D-02
  0.31791704D-02  0.11909546D-05  0.54890987D-06 -0.15392006D-05 -0.15295939D-04
 -0.11727956D-04 -0.58530719D-05 -0.30529624D-03 -0.23408180D-03 -0.11682322D-03
  0.59638868D-09  0.45727301D-09  0.22821128D-09  0.27666719D-03 -0.49697598D-04
  0.16617708D-03 -0.36268292D-09 -0.16914633D-03 -0.23711187D-03 -0.15307227D-03
  0.10888896D-03 -0.39693048D-10  0.32062183D-09 -0.23748621D-01 -0.43811569D-01
 -0.70725457D-01 -0.92063530D-01 -0.78557977D-01 -0.27124182D-01  0.93584187D-03
  0.43132866D-03 -0.12094906D-02  0.33222297D-04  0.25472750D-04  0.12712688D-04
 -0.36989151D-04 -0.28360935D-04 -0.14154094D-04 -0.38059392D-09 -0.29181528D-09
 -0.14563627D-09  0.24530888D-03 -0.20162198D-04  0.79541714D-04  0.73273268D-09
  0.51893804D-03  0.49841525D-03  0.42089675D-03 -0.45775133D-04  0.76900530D-10
 -0.16721143D-09 -0.16883711D-01 -0.31147150D-01 -0.50281158D-01 -0.65451128D-01
 -0.55849566D-01 -0.19283513D-01  0.64638412D-03  0.29791785D-03 -0.83539275D-03
  0.79949019D-05  0.61299837D-05  0.30592915D-05 -0.54299555D-04 -0.41633455D-04
 -0.20778012D-04  0.66715412D-09  0.51153146D-09  0.25529005D-09 -0.13092659D-03
  0.87898686D-04 -0.20207891D-04 -0.19681199D-09  0.36382004D-03  0.42171250D-03
  0.31754292D-03 -0.23135435D-04 -0.44125799D-09 -0.10120750D-08  0.38218623D-02
  0.70505896D-02  0.11381838D-01  0.14815771D-01  0.12642324D-01  0.43650907D-02
  0.27033952D-04  0.12459924D-04 -0.34938927D-04  0.35244333D-03  0.27023119D-03
  0.13486430D-03 -0.14252198D-03 -0.10927681D-03 -0.54536787D-04 -0.94305223D-10
 -0.72307263D-10 -0.36086392D-10  0.78825432D-03 -0.33079612D-03  0.42905572D-04
  0.34560430D-09 -0.29511852D-03 -0.32798610D-03 -0.23474613D-03  0.17122965D-03
 -0.22487028D-08  0.37562506D-09  0.42389583D+00  0.78200504D+00  0.12623986D+01
  0.16432679D+01  0.14022035D+01  0.48414716D+00 -0.15690292D-01 -0.72316411D-02
  0.20278277D-01  0.23982823D-03  0.18388507D-03  0.91771540D-04  0.19964546D-03
  0.15307548D-03  0.76395392D-04  0.45380635D-08  0.34794992D-08  0.17365140D-08
 -0.19197122D-02 -0.15396736D-03  0.17986542D-03 -0.23642366D-08 -0.84178953D-02
 -0.84033336D-02 -0.85687840D-02 -0.57819385D-04  0.80616849D-09  0.17602166D-08
  0.32070272D+00  0.59163390D+00  0.95508056D+00  0.12432311D+01  0.10608514D+01
  0.36628648D+00 -0.11777831D-01 -0.54283916D-02  0.15221777D-01 -0.35183921D-03
 -0.26976799D-03 -0.13463313D-03 -0.14656528D-03 -0.11237696D-03 -0.56083979D-04
  0.32220945D-08  0.24704977D-08  0.12329515D-08 -0.86205393D-03  0.17338235D-03
  0.12768486D-03 -0.54145839D-09 -0.64931309D-02 -0.64734584D-02 -0.65652396D-02
 -0.10474421D-03 -0.21184961D-09  0.18520468D-08 -0.92297085D-05 -0.15655333D-04
 -0.17823043D-04  0.12785787D-04  0.57503020D-05  0.97536006D-05  0.11104130D-04
  0.21401024D-04 -0.15468936D-05 -0.26238243D-05 -0.29871312D-05 -0.16706117D-04
 -0.44578449D-05 -0.75613488D-05 -0.86083283D-05  0.63291045D-04 -0.80491873D-04
 -0.13652945D-03 -0.15543396D-03  0.24650829D-03 -0.57508043D-04 -0.97544526D-04
 -0.11105099D-03  0.24093235D-03
MO    3     MO 0.0        OCC NO =    1.0000000  ORB. ENERGY =   -9.955493
 -0.46844911D-02 -0.86419714D-02 -0.13950821D-01 -0.18159824D-01 -0.15495811D-01
 -0.53503311D-02 -0.11420637D-03 -0.52637611D-04  0.14760135D-03  0.21346122D-03
  0.16366852D-03  0.81682063D-04  0.92566613D-04  0.70974208D-04  0.35421104D-04
  0.95252313D-09  0.73033432D-09  0.36448801D-09 -0.23218771D-02 -0.84986199D-03
 -0.48587119D-03 -0.84627968D-09  0.46871741D-03  0.50165757D-03  0.36662216D-03
 -0.17828782D-03  0.21456611D-08  0.45798652D-08 -0.28198663D+00 -0.52021027D+00
 -0.83978067D+00 -0.10931449D+01 -0.93278253D+00 -0.32206739D+00  0.10785005D-01
  0.49707989D-02 -0.13938639D-01 -0.20326943D-03 -0.15585410D-03 -0.77782121D-04
 -0.18257512D-03 -0.13998702D-03 -0.69863335D-04 -0.52640200D-08 -0.40361167D-08
 -0.20143051D-08  0.36556652D-02  0.14175431D-03  0.11018952D-02  0.54656011D-08
  0.51020217D-02  0.52790558D-02  0.53921635D-02 -0.44172124D-04 -0.20356862D-08
 -0.33547449D-08  0.37318121D+00  0.68844647D+00  0.11113661D+01  0.14466684D+01
  0.12344448D+01  0.42622411D+00 -0.14155920D-01 -0.65244504D-02  0.18295240D-01
 -0.18095344D-03 -0.13874362D-03 -0.69242790D-04 -0.59966074D-04 -0.45978182D-04
 -0.22946335D-04 -0.89216341D-08 -0.68405432D-08 -0.34139105D-08 -0.39942455D-02
  0.10359640D-02 -0.41463982D-03  0.51212362D-08 -0.70565241D-02 -0.69869997D-02
 -0.72409135D-02  0.15318093D-03 -0.15979141D-07  0.11328718D-07  0.50746103D-02
  0.93616651D-02  0.15112630D-01  0.19672154D-01  0.16786285D-01  0.57959007D-02
  0.11552151D-03  0.53243759D-04 -0.14930106D-03  0.14588053D-03  0.11185194D-03
  0.55821955D-04  0.24654983D-03  0.18903877D-03  0.94343597D-04 -0.33467329D-08
 -0.25660625D-08 -0.12806450D-08  0.23835230D-02 -0.79649436D-03 -0.60631839D-03
  0.22497886D-08 -0.44440789D-03 -0.58587731D-03 -0.38925194D-03  0.14254161D-03
 -0.14271211D-08  0.21915330D-08  0.15311529D+00  0.28246782D+00  0.45599064D+00
  0.59356433D+00  0.50648952D+00  0.17487866D+00 -0.59184399D-02 -0.27278035D-02
  0.76490458D-02 -0.13168770D-03 -0.10096978D-03 -0.50390995D-04 -0.10032001D-03
 -0.76919020D-04 -0.38387982D-04 -0.78760718D-09 -0.60388723D-09 -0.30138205D-09
 -0.26764544D-02  0.75753645D-04  0.93387704D-03 -0.30174142D-08 -0.27473680D-02
 -0.28253543D-02 -0.28640514D-02 -0.16516344D-04 -0.13592681D-08  0.34464079D-08
 -0.20356200D+00 -0.37553214D+00 -0.60622531D+00 -0.78912523D+00 -0.67336199D+00
 -0.23249571D+00  0.77902580D-02  0.35905228D-02 -0.10068201D-01 -0.11339381D-03
 -0.86943178D-04 -0.43390739D-04 -0.43337668D-04 -0.33228575D-04 -0.16583388D-04
 -0.15379255D-08 -0.11791837D-08 -0.58849533D-09  0.28606443D-02  0.85945725D-03
 -0.37950121D-03 -0.77431230D-09  0.38320505D-02  0.37817068D-02  0.38792599D-02
 -0.47951139D-04  0.33625780D-08 -0.16357177D-08 -0.22324223D-04 -0.37866107D-04
 -0.43109224D-04 -0.23017152D-03  0.73347561D-04  0.12441135D-03  0.14163792D-03
  0.70266869D-04 -0.90024513D-04 -0.15269861D-03 -0.17384197D-03 -0.12654387D-04
  0.21532257D-04  0.36522783D-04  0.41579898D-04  0.23458848D-03 -0.52942201D-04
 -0.89799993D-04 -0.10223412D-03 -0.12346903D-03  0.61886541D-04  0.10497129D-03
  0.11950610D-03  0.94293459D-04
MO    4     MO 0.0        OCC NO =    1.0000000  ORB. ENERGY =   -9.955478
  0.21054807D-02  0.38842008D-02  0.62703044D-02  0.81620733D-02  0.69647119D-02
  0.24047477D-02  0.35997631D-04  0.16591275D-04 -0.46523668D-04  0.61654397D-04
  0.47272681D-04  0.23592381D-04 -0.31138702D-03 -0.23875182D-03 -0.11915389D-03
 -0.84082672D-09 -0.64469259D-09 -0.32174679D-09  0.79848998D-03  0.15205296D-03
  0.36565639D-03  0.64081766D-09 -0.93656120D-04 -0.30317583D-03 -0.14994359D-03
 -0.13218609D-04  0.18011496D-08  0.55276936D-09 -0.15431352D+00 -0.28467832D+00
 -0.45955908D+00 -0.59820937D+00 -0.51045314D+00 -0.17624720D+00  0.57871468D-02
  0.26672907D-02 -0.74793615D-02 -0.71769633D-04 -0.55028402D-04 -0.27463029D-04
 -0.97773085D-04 -0.74966200D-04 -0.37413388D-04 -0.15909997D-08 -0.12198777D-08
 -0.60880445D-09  0.72657808D-03  0.79455071D-04 -0.15217217D-04 -0.11139333D-08
  0.28341485D-02  0.29646348D-02  0.30683543D-02 -0.98650454D-04 -0.26439536D-08
 -0.46925502D-08  0.20261527D+00  0.37378561D+00  0.60340588D+00  0.78545516D+00
  0.67023031D+00  0.23141442D+00 -0.75594635D-02 -0.34841498D-02  0.97699197D-02
 -0.70979258D-04 -0.54422393D-04 -0.27160588D-04 -0.12715137D-04 -0.97491608D-05
 -0.48655145D-05 -0.93296512D-08 -0.71533848D-08 -0.35700404D-08 -0.91163484D-03
  0.19673172D-04  0.57108219D-04  0.32512635D-08 -0.38630214D-02 -0.38478346D-02
 -0.40613517D-02  0.14866189D-03 -0.25006243D-08  0.25425565D-08 -0.77796584D-03
 -0.14351951D-02 -0.23168499D-02 -0.30158501D-02 -0.25734304D-02 -0.88854366D-03
 -0.31604478D-04 -0.14566475D-04  0.40845916D-04 -0.16767998D-03 -0.12856637D-03
 -0.64163629D-04  0.21131858D-03  0.16202569D-03  0.80862174D-04 -0.19432175D-08
 -0.14899359D-08 -0.74358244D-09 -0.58913728D-03  0.33343604D-03 -0.43574722D-04
 -0.24213032D-09  0.17571682D-03  0.17594740D-04  0.73040994D-04 -0.10778432D-03
  0.43054701D-09  0.16008567D-08 -0.28261191D+00 -0.52136379D+00 -0.84164282D+00
 -0.10955689D+01 -0.93485091D+00 -0.32278155D+00  0.10712446D-01  0.49373566D-02
 -0.13844863D-01  0.17032556D-03  0.13059483D-03  0.65175975D-04  0.18114950D-03
  0.13889394D-03  0.69317813D-04 -0.37039666D-08 -0.28399666D-08 -0.14173424D-08
  0.25936536D-02 -0.14354547D-03 -0.58505661D-03  0.30874312D-08  0.51486584D-02
  0.53543891D-02  0.55028447D-02 -0.10659191D-03  0.16711557D-08 -0.34967033D-08
  0.37268618D+00  0.68753323D+00  0.11098918D+01  0.14447494D+01  0.12328073D+01
  0.42565872D+00 -0.14030949D-01 -0.64668514D-02  0.18133726D-01  0.15764061D-03
  0.12086882D-03  0.60322015D-04  0.42975451D-04  0.32950850D-04  0.16444783D-04
  0.11461394D-08  0.87878700D-09  0.43857630D-09 -0.29329030D-02 -0.57854572D-03
  0.17710063D-03  0.21998327D-09 -0.70739980D-02 -0.70231877D-02 -0.73404752D-02
  0.20781965D-03 -0.40793569D-08 -0.14714675D-09  0.51224789D-05  0.86886938D-05
  0.98917708D-05  0.76029284D-04  0.15972598D-04  0.27092550D-04  0.30843910D-04
 -0.11871502D-03 -0.25323544D-04 -0.42953524D-04 -0.48901069D-04  0.15420620D-03
 -0.78130804D-05 -0.13252463D-04 -0.15087461D-04 -0.61036938D-04  0.53209263D-04
  0.90252981D-04  0.10274983D-03 -0.61595627D-04 -0.70116852D-04 -0.11893145D-03
 -0.13539925D-03  0.12267929D-03
MO    5     MO 0.0        OCC NO =    1.0000000  ORB. ENERGY =   -9.927864
  0.38138752D+00  0.70358550D+00  0.11358051D+01  0.14784808D+01  0.12615904D+01
  0.43559684D+00 -0.14639443D-01 -0.67473059D-02  0.18920150D-01  0.15159243D-03
  0.11623146D-03  0.58007643D-04  0.93604335D-04  0.71769867D-04  0.35818194D-04
 -0.53719529D-08 -0.41188728D-08 -0.20556062D-08 -0.32553997D-02 -0.72369623D-03
 -0.44509157D-03  0.47788063D-09 -0.77045615D-02 -0.76672471D-02 -0.75947836D-02
 -0.72861581D-04  0.15430776D-08  0.43718993D-08 -0.38769695D-02 -0.71522518D-02
 -0.11545952D-01 -0.15029399D-01 -0.12824613D-01 -0.44280308D-02  0.37540017D-03
  0.17302159D-03 -0.48517061D-03  0.25544784D-03  0.19586120D-03  0.97748468D-04
 -0.16557593D-03 -0.12695312D-03 -0.63358507D-04 -0.28104484D-08 -0.21548736D-08
 -0.10754329D-08  0.18769428D-02 -0.19714523D-03  0.77391241D-03  0.42492546D-08
 -0.28224174D-03 -0.15402907D-03 -0.14039486D-03  0.17638982D-04  0.90357342D-09
  0.31967339D-08  0.38022045D-02  0.70143248D-02  0.11323295D-01  0.14739566D-01
  0.12577298D-01  0.43426388D-02 -0.36865979D-03 -0.16991496D-03  0.47645928D-03
 -0.29804858D-04 -0.22852475D-04 -0.11404987D-04  0.29566497D-03  0.22669715D-03
  0.11313777D-03  0.23927841D-08  0.18346351D-08  0.91561149D-09 -0.18606433D-02
  0.59926650D-03 -0.51927508D-03  0.63788979D-09  0.17178334D-03  0.25696827D-03
  0.13803317D-03  0.91489566D-04 -0.68838210D-08  0.41238426D-08 -0.37145248D+00
 -0.68525729D+00 -0.11062177D+01 -0.14399668D+01 -0.12287263D+01 -0.42424966D+00
  0.14262140D-01  0.65734074D-02 -0.18432520D-01  0.14910324D-03  0.11432291D-03
  0.57055144D-04  0.91915683D-04  0.70475116D-04  0.35172022D-04 -0.43649888D-09
 -0.33467966D-09 -0.16702861D-09  0.32005245D-02 -0.71747748D-03 -0.44105907D-03
  0.17040554D-08  0.75032457D-02  0.74679015D-02  0.73927546D-02  0.69851508D-04
  0.66280687D-09 -0.21051416D-08  0.37839850D-02  0.69807134D-02  0.11269036D-01
  0.14668936D-01  0.12517030D-01  0.43218297D-02 -0.36795707D-03 -0.16959108D-03
  0.47555109D-03  0.25037071D-03  0.19196838D-03  0.95805676D-04 -0.16008866D-03
 -0.12274583D-03 -0.61258772D-04 -0.56996455D-09 -0.43701267D-09 -0.21809995D-09
 -0.18604552D-02 -0.19285151D-03  0.76902271D-03 -0.23197939D-08  0.27668951D-03
  0.15273210D-03  0.13834446D-03 -0.14256320D-04 -0.12389674D-08  0.20882598D-08
 -0.39037033D-02 -0.72015704D-02 -0.11625568D-01 -0.15133035D-01 -0.12913046D-01
 -0.44585644D-02  0.37650691D-03  0.17353169D-03 -0.48660097D-03 -0.32392048D-04
 -0.24836168D-04 -0.12394989D-04  0.30287880D-03  0.23222826D-03  0.11589818D-03
  0.35190400D-10  0.26981767D-10  0.13465793D-10  0.18772561D-02  0.60148303D-03
 -0.52560722D-03 -0.10248825D-08 -0.17248875D-03 -0.26264924D-03 -0.13991761D-03
 -0.92845795D-04  0.73941792D-10  0.58009878D-11 -0.82202687D-04 -0.13943132D-03
 -0.15873762D-03  0.31195092D-04  0.18817297D-04  0.31917698D-04  0.36337171D-04
  0.17899066D-03 -0.18936356D-04 -0.32119645D-04 -0.36567080D-04 -0.17782561D-03
  0.80605284D-04  0.13672182D-03  0.15565296D-03 -0.26095999D-04 -0.18929289D-04
 -0.32107656D-04 -0.36553432D-04 -0.17775773D-03  0.18824686D-04  0.31930231D-04
  0.36351440D-04  0.17903362D-03
MO    6     MO 0.0        OCC NO =    1.0000000  ORB. ENERGY =   -9.927862
  0.37141496D+00  0.68518808D+00  0.11061060D+01  0.14398214D+01  0.12286022D+01
  0.42420681D+00 -0.14103186D-01 -0.65001456D-02  0.18227087D-01  0.94745014D-04
  0.72644467D-04  0.36254681D-04  0.58721466D-04  0.45023895D-04  0.22470079D-04
 -0.58017802D-08 -0.44484370D-08 -0.22200818D-08 -0.20362630D-02 -0.22960212D-03
 -0.14117432D-03  0.14054874D-08 -0.75198280D-02 -0.74587719D-02 -0.75548773D-02
 -0.11972135D-03  0.12132244D-08  0.51093186D-09 -0.36200095D-02 -0.66782107D-02
 -0.10780703D-01 -0.14033272D-01 -0.11974616D-01 -0.41345472D-02  0.28421070D-03
  0.13099245D-03 -0.36731651D-03  0.19253863D-03  0.14762641D-03  0.73675926D-04
 -0.20716069D-03 -0.15883768D-03 -0.79271135D-04  0.83566345D-10  0.64073373D-10
  0.31977104D-10  0.60226688D-03 -0.16679964D-03  0.17413555D-03 -0.29984119D-09
 -0.20048534D-03 -0.45008686D-04 -0.72961217D-04  0.12462024D-03  0.16043725D-08
 -0.20861499D-08 -0.37430338D-02 -0.69051665D-02 -0.11147080D-01 -0.14510186D-01
 -0.12381568D-01 -0.42750578D-02  0.29480542D-03  0.13587555D-03 -0.38100922D-03
  0.98737196D-04  0.75705420D-04  0.37782310D-04 -0.27330492D-03 -0.20955288D-03
 -0.10458157D-03 -0.12573396D-09 -0.96404829D-10 -0.48112766D-10  0.65156146D-03
 -0.95734418D-04  0.24113098D-03 -0.19001045D-09 -0.30676228D-04 -0.22548485D-03
 -0.76196468D-04 -0.53907590D-04  0.12838088D-08  0.21452814D-08  0.38135098D+00
  0.70351809D+00  0.11356963D+01  0.14783392D+01  0.12614695D+01  0.43555511D+00
 -0.14484631D-01 -0.66759532D-02  0.18720070D-01 -0.98786957D-04 -0.75743573D-04
 -0.37801351D-04 -0.61048358D-04 -0.46808009D-04 -0.23360477D-04 -0.79743336D-09
 -0.61142132D-09 -0.30514209D-09 -0.21214669D-02  0.24864240D-03  0.15283564D-03
 -0.16647437D-09 -0.77203603D-02 -0.76587077D-02 -0.77526844D-02 -0.12178785D-03
 -0.74911227D-09  0.18852716D-10 -0.37250004D-02 -0.68718984D-02 -0.11093375D-01
 -0.14440278D-01 -0.12321915D-01 -0.42544612D-02  0.29421763D-03  0.13560464D-03
 -0.38024956D-03 -0.19931585D-03 -0.15282275D-03 -0.76269263D-04  0.21151235D-03
  0.16217425D-03  0.80936318D-04 -0.45767621D-09 -0.35091709D-09 -0.17513222D-09
  0.65171154D-03  0.17198155D-03 -0.19452306D-03  0.73160859D-09 -0.20774050D-03
 -0.48983918D-04 -0.76550721D-04  0.12498351D-03 -0.17569577D-08  0.55430690D-09
 -0.36452453D-02 -0.67247659D-02 -0.10855857D-01 -0.14131101D-01 -0.12058094D-01
 -0.41633700D-02  0.28516827D-03  0.13143380D-03 -0.36855408D-03 -0.97918659D-04
 -0.75077817D-04 -0.37469093D-04  0.26552034D-03  0.20358416D-03  0.10160276D-03
  0.27043364D-09  0.20735136D-09  0.10348286D-09  0.60235021D-03  0.79894366D-04
 -0.22738350D-03 -0.32641022D-09 -0.26071757D-04 -0.21849143D-03 -0.72438406D-04
 -0.51469965D-04 -0.21760083D-10 -0.17886793D-09 -0.59444686D-04 -0.10082944D-03
 -0.11479075D-03  0.19279873D-03 -0.44802872D-05 -0.75994151D-05 -0.86516655D-05
  0.43930189D-04 -0.39984262D-05 -0.67820876D-05 -0.77211670D-05  0.48524126D-04
 -0.61593445D-04 -0.10447414D-03 -0.11894012D-03  0.19355537D-03 -0.39778898D-05
 -0.67472541D-05 -0.76815103D-05  0.48648579D-04 -0.44924413D-05 -0.76200308D-05
 -0.86751357D-05  0.43825207D-04
MO    7     MO 0.0        OCC NO =    1.0000000  ORB. ENERGY =   -0.617185
 -0.49923255D-01 -0.92098658D-01 -0.14867579D+00 -0.19353170D+00 -0.16514095D+00
 -0.57019203D-01 -0.69636790D-01 -0.32095533D-01  0.89999225D-01  0.62509704D-01
  0.47928476D-01  0.23919669D-01  0.38437829D-01  0.29471689D-01  0.14708438D-01
 -0.22354620D-06 -0.17140104D-06 -0.85541134D-07  0.21084910D-01  0.44202588D-03
  0.27122335D-03 -0.75688118D-08  0.27423627D-02  0.27961030D-02 -0.10201232D-01
 -0.10088187D-03  0.26210977D-07  0.18164599D-07 -0.51028582D-01 -0.94137769D-01
 -0.15196755D+00 -0.19781659D+00 -0.16879726D+00 -0.58281637D-01 -0.71671565D-01
 -0.33033359D-01  0.92628986D-01 -0.73472745D-04 -0.56334241D-04 -0.28114734D-04
  0.71650169D-01  0.54936805D-01  0.27417316D-01  0.10021342D-07  0.76837295D-08
  0.38347196D-08  0.22005865D-01  0.10675173D-03  0.90756961D-03 -0.46216383D-08
  0.27065939D-02  0.30714091D-02 -0.12138803D-01  0.30322636D-03  0.26779773D-07
  0.17654505D-06 -0.51025224D-01 -0.94131575D-01 -0.15195755D+00 -0.19780358D+00
 -0.16878615D+00 -0.58277802D-01 -0.71665813D-01 -0.33030708D-01  0.92621552D-01
 -0.63908154D-01 -0.49000719D-01 -0.24454793D-01  0.32434081D-01  0.24868396D-01
  0.12411072D-01 -0.10023681D-05 -0.76855231D-06 -0.38356147D-06  0.21997876D-01
 -0.85304071D-03  0.31042312D-03 -0.22990793D-07  0.31152947D-02  0.26543072D-02
 -0.12125909D-01 -0.11146541D-03 -0.52228533D-07  0.33825084D-07 -0.49923296D-01
 -0.92098734D-01 -0.14867591D+00 -0.19353186D+00 -0.16514109D+00 -0.57019249D-01
 -0.69636844D-01 -0.32095558D-01  0.89999293D-01 -0.62517075D-01 -0.47934128D-01
 -0.23922489D-01 -0.38425846D-01 -0.29462501D-01 -0.14703853D-01 -0.38005708D-07
 -0.29140366D-07 -0.14543085D-07  0.21084914D-01 -0.44171731D-03 -0.27171246D-03
 -0.30305312D-08  0.27426441D-02  0.27958293D-02 -0.10201239D-01 -0.10115935D-03
 -0.24276433D-09 -0.94293013D-07 -0.51024621D-01 -0.94130462D-01 -0.15195575D+00
 -0.19780124D+00 -0.16878416D+00 -0.58277113D-01 -0.71665755D-01 -0.33030681D-01
  0.92621477D-01  0.10139055D-03  0.77739841D-04  0.38797629D-04 -0.71647215D-01
 -0.54934540D-01 -0.27416185D-01  0.47559891D-06  0.36465908D-06  0.18199044D-06
  0.22004054D-01 -0.10685992D-03 -0.90764036D-03  0.98462532D-08  0.27064495D-02
  0.30712683D-02 -0.12138059D-01  0.30038946D-03 -0.34749856D-09 -0.62370536D-07
 -0.51021216D-01 -0.94124182D-01 -0.15194561D+00 -0.19778804D+00 -0.16877289D+00
 -0.58273225D-01 -0.71659946D-01 -0.33028004D-01  0.92613970D-01  0.63893013D-01
  0.48989110D-01  0.24448999D-01 -0.32457507D-01 -0.24886358D-01 -0.12420037D-01
  0.50328339D-07  0.38588578D-07  0.19258405D-07  0.21996023D-01  0.85314309D-03
 -0.31034669D-03  0.58877726D-08  0.31139979D-02  0.26553109D-02 -0.12125153D-01
 -0.11316812D-03 -0.80638800D-07  0.68135204D-08  0.77549749D-02  0.13153905D-01
  0.14975256D-01  0.10955723D-02  0.84215064D-02  0.14284469D-01  0.16262363D-01
  0.14742112D-02  0.84180472D-02  0.14278601D-01  0.16255683D-01  0.14699229D-02
  0.77549873D-02  0.13153926D-01  0.14975280D-01  0.10955733D-02  0.84205862D-02
  0.14282908D-01  0.16260586D-01  0.14740408D-02  0.84171125D-02  0.14277016D-01
  0.16253878D-01  0.14697438D-02
MO    8     MO 0.0        OCC NO =    1.0000000  ORB. ENERGY =   -0.516608
  0.17190917D-04  0.31713885D-04  0.51196043D-04  0.66642037D-04  0.56865771D-04
  0.19634384D-04  0.28087187D-04  0.12945359D-04 -0.36300138D-04  0.73358382D-01
  0.56246554D-01  0.28070973D-01 -0.11938369D+00 -0.91535844D-01 -0.45682802D-01
 -0.67265562D-08 -0.51574967D-08 -0.25739523D-08 -0.92604541D-08  0.16453802D-02
 -0.26661465D-02  0.66785031D-08  0.87103671D-02 -0.87105030D-02  0.39204604D-05
 -0.88159501D-02 -0.11177098D-07  0.49908132D-07 -0.60346340D-01 -0.11132721D+00
 -0.17971664D+00 -0.23393767D+00 -0.19961944D+00 -0.68923794D-01 -0.87426931D-01
 -0.40294993D-01  0.11299137D+00  0.73926907D-01  0.56682463D-01  0.28288522D-01
  0.15468851D-01  0.11860534D-01  0.59192377D-02 -0.13475950D-06 -0.10332504D-06
 -0.51566436D-07  0.30436996D-01  0.18988616D-02 -0.16636590D-02 -0.16845927D-07
  0.10680034D-02  0.13156275D-02 -0.12095805D-01  0.10122325D-01  0.33571815D-07
  0.28798613D-06 -0.60350711D-01 -0.11133528D+00 -0.17972966D+00 -0.23395461D+00
 -0.19963390D+00 -0.68928787D-01 -0.87424889D-01 -0.40294051D-01  0.11298873D+00
 -0.47205484D-01 -0.36194171D-01 -0.18063428D-01 -0.58909605D-01 -0.45168149D-01
 -0.22542072D-01 -0.14308699D-05 -0.10971003D-05 -0.54752995D-06  0.30454029D-01
  0.62052012D-03 -0.24428749D-02 -0.37877621D-07  0.53382169D-02 -0.29640169D-02
 -0.12082473D-01  0.57987550D-02 -0.19608708D-06  0.22822126D-06 -0.82387153D-06
 -0.15198821D-05 -0.24535610D-05 -0.31938074D-05 -0.27252816D-05 -0.94097425D-06
 -0.32969818D-05 -0.15195759D-05  0.42610494D-05  0.73371569D-01  0.56256665D-01
  0.28076019D-01 -0.11937567D+00 -0.91529696D-01 -0.45679733D-01  0.27194155D-06
  0.20850753D-06  0.10405987D-06 -0.59494004D-05  0.16427741D-02 -0.26677624D-02
  0.10223059D-07 -0.87080730D-02  0.87129545D-02 -0.14353422D-05  0.88156573D-02
 -0.49373042D-07 -0.11916154D-07  0.60343172D-01  0.11132137D+00  0.17970721D+00