 Generated by Multiwfn
GAUSSIAN             41 MOL ORBITALS    192 PRIMITIVES       12 NUCLEI
  C    1    (CENTRE  1)  -2.23916664 -1.37622261  0.00000189  CHARGE =  6.0
  C    2    (CENTRE  2)   0.07248833 -2.62706155  0.00000042  CHARGE =  6.0
  C    3    (CENTRE  3)   2.31149292 -1.25092553  0.00001140  CHARGE =  6.0
  C    4    (CENTRE  4)   2.23910705  1.37631925  0.00000106  CHARGE =  6.0
  C    5    (CENTRE  5)  -0.07237604  2.62706426 -0.00000627  CHARGE =  6.0
  C    6    (CENTRE  6)  -2.31154670  1.25082670  0.00000011  CHARGE =  6.0
  H    7    (CENTRE  7)  -3.98087944 -2.44733165 -0.00001039  CHARGE =  1.0
  H    8    (CENTRE  8)   0.12880213 -4.67101895 -0.00002338  CHARGE =  1.0
  H    9    (CENTRE  9)   4.10987627 -2.22388247 -0.00002372  CHARGE =  1.0
  H   10    (CENTRE 10)   3.98096145  2.44719695 -0.00000771  CHARGE =  1.0
  H   11    (CENTRE 11)  -0.12895092  4.67101421 -0.00000070  CHARGE =  1.0
  H   12    (CENTRE 12)  -4.10980304  2.22401887  0.00001425  CHARGE =  1.0
CENTRE ASSIGNMENTS    1  1  1  1  1  1  1  1  1  1  1  1  1  1  1  1  1  1  1  1
CENTRE ASSIGNMENTS    1  1  1  1  1  1  1  1  2  2  2  2  2  2  2  2  2  2  2  2
CENTRE ASSIGNMENTS    2  2  2  2  2  2  2  2  2  2  2  2  2  2  2  2  3  3  3  3
CENTRE ASSIGNMENTS    3  3  3  3  3  3  3  3  3  3  3  3  3  3  3  3  3  3  3  3
CENTRE ASSIGNMENTS    3  3  3  3  4  4  4  4  4  4  4  4  4  4  4  4  4  4  4  4
CENTRE ASSIGNMENTS    4  4  4  4  4  4  4  4  4  4  4  4  5  5  5  5  5  5  5  5
CENTRE ASSIGNMENTS    5  5  5  5  5  5  5  5  5  5  5  5  5  5  5  5  5  5  5  5
CENTRE ASSIGNMENTS    6  6  6  6  6  6  6  6  6  6  6  6  6  6  6  6  6  6  6  6
CENTRE ASSIGNMENTS    6  6  6  6  6  6  6  6  7  7  7  7  8  8  8  8  9  9  9  9
CENTRE ASSIGNMENTS   10 10 10 10 11 11 11 11 12 12 12 12
TYPE ASSIGNMENTS      1  1  1  1  1  1  1  1  1  2  2  2  3  3  3  4  4  4  1  2
TYPE ASSIGNMENTS      3  4  5  6  7  8  9 10  1  1  1  1  1  1  1  1  1  2  2  2
TYPE ASSIGNMENTS      3  3  3  4  4  4  1  2  3  4  5  6  7  8  9 10  1  1  1  1
TYPE ASSIGNMENTS      1  1  1  1  1  2  2  2  3  3  3  4  4  4  1  2  3  4  5  6
TYPE ASSIGNMENTS      7  8  9 10  1  1  1  1  1  1  1  1  1  2  2  2  3  3  3  4
TYPE ASSIGNMENTS      4  4  1  2  3  4  5  6  7  8  9 10  1  1  1  1  1  1  1  1
TYPE ASSIGNMENTS      1  2  2  2  3  3  3  4  4  4  1  2  3  4  5  6  7  8  9 10
TYPE ASSIGNMENTS      1  1  1  1  1  1  1  1  1  2  2  2  3  3  3  4  4  4  1  2
TYPE ASSIGNMENTS      3  4  5  6  7  8  9 10  1  1  1  1  1  1  1  1  1  1  1  1
TYPE ASSIGNMENTS      1  1  1  1  1  1  1  1  1  1  1  1
EXPONENTS  0.3047525D+04 0.4573695D+03 0.1039487D+03 0.2921016D+02 0.9286663D+01
EXPONENTS  0.3163927D+01 0.7868272D+01 0.1881289D+01 0.5442493D+00 0.7868272D+01
EXPONENTS  0.1881289D+01 0.5442493D+00 0.7868272D+01 0.1881289D+01 0.5442493D+00
EXPONENTS  0.7868272D+01 0.1881289D+01 0.5442493D+00 0.1687145D+00 0.1687145D+00
EXPONENTS  0.1687145D+00 0.1687145D+00 0.8000000D+00 0.8000000D+00 0.8000000D+00
EXPONENTS  0.8000000D+00 0.8000000D+00 0.8000000D+00 0.3047525D+04 0.4573695D+03
EXPONENTS  0.1039487D+03 0.2921016D+02 0.9286663D+01 0.3163927D+01 0.7868272D+01
EXPONENTS  0.1881289D+01 0.5442493D+00 0.7868272D+01 0.1881289D+01 0.5442493D+00
EXPONENTS  0.7868272D+01 0.1881289D+01 0.5442493D+00 0.7868272D+01 0.1881289D+01
EXPONENTS  0.5442493D+00 0.1687145D+00 0.1687145D+00 0.1687145D+00 0.1687145D+00
EXPONENTS  0.8000000D+00 0.8000000D+00 0.8000000D+00 0.8000000D+00 0.8000000D+00
EXPONENTS  0.8000000D+00 0.3047525D+04 0.4573695D+03 0.1039487D+03 0.2921016D+02
EXPONENTS  0.9286663D+01 0.3163927D+01 0.7868272D+01 0.1881289D+01 0.5442493D+00
EXPONENTS  0.7868272D+01 0.1881289D+01 0.5442493D+00 0.7868272D+01 0.1881289D+01
EXPONENTS  0.5442493D+00 0.7868272D+01 0.1881289D+01 0.5442493D+00 0.1687145D+00
EXPONENTS  0.1687145D+00 0.1687145D+00 0.1687145D+00 0.8000000D+00 0.8000000D+00
EXPONENTS  0.8000000D+00 0.8000000D+00 0.8000000D+00 0.8000000D+00 0.3047525D+04
EXPONENTS  0.4573695D+03 0.1039487D+03 0.2921016D+02 0.9286663D+01 0.3163927D+01
EXPONENTS  0.7868272D+01 0.1881289D+01 0.5442493D+00 0.7868272D+01 0.1881289D+01
EXPONENTS  0.5442493D+00 0.7868272D+01 0.1881289D+01 0.5442493D+00 0.7868272D+01
EXPONENTS  0.1881289D+01 0.5442493D+00 0.1687145D+00 0.1687145D+00 0.1687145D+00
EXPONENTS  0.1687145D+00 0.8000000D+00 0.8000000D+00 0.8000000D+00 0.8000000D+00
EXPONENTS  0.8000000D+00 0.8000000D+00 0.3047525D+04 0.4573695D+03 0.1039487D+03
EXPONENTS  0.2921016D+02 0.9286663D+01 0.3163927D+01 0.7868272D+01 0.1881289D+01
EXPONENTS  0.5442493D+00 0.7868272D+01 0.1881289D+01 0.5442493D+00 0.7868272D+01
EXPONENTS  0.1881289D+01 0.5442493D+00 0.7868272D+01 0.1881289D+01 0.5442493D+00
EXPONENTS  0.1687145D+00 0.1687145D+00 0.1687145D+00 0.1687145D+00 0.8000000D+00
EXPONENTS  0.8000000D+00 0.8000000D+00 0.8000000D+00 0.8000000D+00 0.8000000D+00
EXPONENTS  0.3047525D+04 0.4573695D+03 0.1039487D+03 0.2921016D+02 0.9286663D+01
EXPONENTS  0.3163927D+01 0.7868272D+01 0.1881289D+01 0.5442493D+00 0.7868272D+01
EXPONENTS  0.1881289D+01 0.5442493D+00 0.7868272D+01 0.1881289D+01 0.5442493D+00
EXPONENTS  0.7868272D+01 0.1881289D+01 0.5442493D+00 0.1687145D+00 0.1687145D+00
EXPONENTS  0.1687145D+00 0.1687145D+00 0.8000000D+00 0.8000000D+00 0.8000000D+00
EXPONENTS  0.8000000D+00 0.8000000D+00 0.8000000D+00 0.1873114D+02 0.2825394D+01
EXPONENTS  0.6401217D+00 0.1612778D+00 0.1873114D+02 0.2825394D+01 0.6401217D+00
EXPONENTS  0.1612778D+00 0.1873114D+02 0.2825394D+01 0.6401217D+00 0.1612778D+00
EXPONENTS  0.1873114D+02 0.2825394D+01 0.6401217D+00 0.1612778D+00 0.1873114D+02
EXPONENTS  0.2825394D+01 0.6401217D+00 0.1612778D+00 0.1873114D+02 0.2825394D+01
EXPONENTS  0.6401217D+00 0.1612778D+00
MO    1     MO 0.0        OCC NO =    1.0000000  ORB. ENERGY =  -10.455411
 -0.37236789D+00 -0.68694604D+00 -0.11089439D+01 -0.14435155D+01 -0.12317544D+01
 -0.42529518D+00  0.14255499D-01  0.65703466D-02 -0.18423938D-01 -0.41598333D-03
 -0.31894964D-03 -0.15917822D-03 -0.24978542D-03 -0.19151962D-03 -0.95581712D-04
 -0.49638499D-09 -0.38059653D-09 -0.18994434D-09  0.31264162D-02  0.73208108D-03
  0.44981995D-03  0.95210278D-10  0.75204232D-02  0.74756513D-02  0.74159597D-02
  0.90295709D-04  0.10730758D-09 -0.64326730D-08 -0.31782012D-02 -0.58631606D-02
 -0.94649591D-02 -0.12320564D-01 -0.10513160D-01 -0.36299415D-02 -0.95133886D-04
 -0.43847121D-04  0.12295190D-03 -0.26169733D-03 -0.20065292D-03 -0.10013987D-03
  0.15134309D-03  0.11604028D-03  0.57912234D-04  0.28472187D-08  0.21830667D-08
  0.10895033D-08 -0.17953108D-02  0.18442855D-03 -0.74591024D-03 -0.43657344D-08
  0.42572010D-03  0.29787628D-03  0.26454565D-03 -0.46517163D-04 -0.87168118D-09
 -0.33857936D-08  0.31589605D-02  0.58276654D-02  0.94076588D-02  0.12245977D-01
  0.10449514D-01  0.36079661D-02  0.99517326D-04  0.45867444D-04 -0.12861710D-03
  0.19653311D-04  0.15068912D-04  0.75204432D-05 -0.30616949D-03 -0.23475134D-03
 -0.11715737D-03 -0.23230082D-08 -0.17811354D-08 -0.88891138D-09  0.18086374D-02
 -0.58477939D-03  0.50659293D-03 -0.45045841D-09 -0.30694808D-03 -0.42282821D-03
 -0.26734888D-03 -0.76507688D-04  0.66230617D-08 -0.29202608D-08  0.38052550D+00
  0.70199524D+00  0.11332380D+01  0.14751391D+01  0.12587389D+01  0.43461229D+00
 -0.14564464D-01 -0.67127484D-02  0.18823247D-01 -0.42384566D-03 -0.32497797D-03
 -0.16218678D-03 -0.25408846D-03 -0.19481891D-03 -0.97228291D-04  0.23657832D-08
  0.18139325D-08  0.90527944D-09 -0.31711866D-02  0.73814000D-03  0.45332719D-03
 -0.19408341D-08 -0.76853314D-02 -0.76394048D-02 -0.75820509D-02 -0.93637396D-04
 -0.19693950D-08  0.57779290D-08  0.32532597D-02  0.60016289D-02  0.96884900D-02
  0.12611535D-01  0.10761446D-01  0.37156686D-02  0.95751255D-04  0.44131666D-04
 -0.12374980D-03 -0.26591989D-03 -0.20389051D-03 -0.10175565D-03  0.15626998D-03
  0.11981791D-03  0.59797534D-04  0.45226993D-09  0.34677189D-09  0.17306348D-09
  0.18086754D-02  0.18818376D-03 -0.75016034D-03  0.23293291D-08 -0.43370924D-03
 -0.30228341D-03 -0.26935949D-03  0.49724943D-04  0.29961591D-09 -0.17119033D-08
 -0.30932983D-02 -0.57065313D-02 -0.92121109D-02 -0.11991431D-01 -0.10232310D-01
 -0.35329708D-02 -0.98606127D-04 -0.45447474D-04  0.12743946D-03  0.17131756D-04
  0.13135544D-04  0.65555571D-05 -0.30045519D-03 -0.23036998D-03 -0.11497077D-03
  0.23123105D-09  0.17729330D-09  0.88481783D-10 -0.17952598D-02 -0.58242222D-03
  0.50159176D-03  0.89136068D-09  0.30336841D-03  0.41441467D-03  0.26271266D-03
  0.75452539D-04 -0.53876129D-10 -0.68527701D-09  0.72703047D-04  0.12331813D-03
  0.14039333D-03  0.82769999D-06 -0.17147797D-04 -0.29085908D-04 -0.33113279D-04
 -0.17450788D-03  0.17133482D-04  0.29061628D-04  0.33085636D-04  0.17586355D-03
 -0.73841849D-04 -0.12524975D-03 -0.14259242D-03  0.26528206D-05  0.17061486D-04
  0.28939510D-04  0.32946609D-04  0.17572520D-03 -0.17213671D-04 -0.29197645D-04
 -0.33240487D-04 -0.17461003D-03
MO    2     MO 0.0        OCC NO =    1.0000000  ORB. ENERGY =  -10.455403
  0.38048662D+00  0.70192352D+00  0.11331222D+01  0.14749884D+01  0.12586103D+01
  0.43456789D+00 -0.14412352D-01 -0.66426400D-02  0.18626656D-01  0.35928842D-03
  0.27547957D-03  0.13748361D-03  0.21442647D-03  0.16440861D-03  0.82051421D-04
 -0.53146939D-10 -0.40749702D-10 -0.20336957D-10 -0.20999790D-02 -0.28323012D-03
 -0.17376098D-03  0.90618504D-09 -0.77009627D-02 -0.76283488D-02 -0.77449750D-02
 -0.14563710D-03 -0.24993185D-09  0.27363261D-08  0.33214913D-02  0.61275029D-02
  0.98916896D-02  0.12876041D-01  0.10987149D-01  0.37935985D-02  0.34504215D-04
  0.15902961D-04 -0.44593563D-04  0.19208386D-03  0.14727772D-03  0.73501905D-04
 -0.22685197D-03 -0.17393570D-03 -0.86806105D-04 -0.28672120D-09 -0.21983963D-09
 -0.10971538D-09  0.63587633D-03 -0.16721618D-03  0.20634243D-03 -0.60714902D-10
 -0.37206471D-03 -0.20146580D-03 -0.22163937D-03  0.15078336D-03  0.14035701D-08
 -0.23641086D-08  0.31630956D-02  0.58352938D-02  0.94199734D-02  0.12262006D-01
  0.10463192D-01  0.36126889D-02  0.36304848D-04  0.16732871D-04 -0.46920718D-04
  0.11554017D-03  0.88588871D-04  0.44212055D-04 -0.26621913D-03 -0.20411995D-03
 -0.10187016D-03 -0.23321122D-09 -0.17881157D-09 -0.89239507D-10  0.59802372D-03
 -0.96902478D-04  0.23156092D-03  0.51623911D-10 -0.16688984D-03 -0.38458681D-03
 -0.21426224D-03 -0.46046208D-04  0.13115841D-08  0.30971672D-08  0.37232816D+00
  0.68687275D+00  0.11088256D+01  0.14433615D+01  0.12316229D+01  0.42524981D+00
 -0.14100056D-01 -0.64987027D-02  0.18223041D-01 -0.35036229D-03 -0.26863558D-03
 -0.13406798D-03 -0.20868127D-03 -0.16000356D-03 -0.79852991D-04  0.11250036D-08
  0.86258138D-09  0.43048857D-09 -0.20317348D-02  0.26732287D-03  0.16393219D-03
 -0.38802903D-09 -0.75359838D-02 -0.74647678D-02 -0.75824554D-02 -0.14385405D-03
 -0.20010654D-08  0.36518634D-08  0.32556258D-02  0.60059939D-02  0.96955364D-02
  0.12620708D-01  0.10769273D-01  0.37183710D-02  0.32342021D-04  0.14906408D-04
 -0.41799123D-04 -0.18649490D-03 -0.14299246D-03 -0.71363258D-04  0.22358720D-03
  0.17143248D-03  0.85556824D-04 -0.71857353D-09 -0.55095661D-09 -0.27496596D-09
  0.59692775D-03  0.16321323D-03 -0.19015183D-03  0.68069848D-09 -0.36282811D-03
 -0.19506169D-03 -0.21592148D-03  0.14971679D-03 -0.22457385D-08  0.75912139D-09
  0.32345472D-02  0.59671080D-02  0.96327625D-02  0.12538995D-01  0.10699547D-01
  0.36942964D-02  0.38363056D-04  0.17681497D-04 -0.49580764D-04 -0.11594254D-03
 -0.88897382D-04 -0.44366024D-04  0.27293788D-03  0.20927145D-03  0.10444112D-03
  0.19857372D-10  0.15225374D-10  0.75985285D-11  0.63718509D-03  0.10955569D-03
 -0.24252797D-03 -0.27080261D-09 -0.17360487D-03 -0.39372794D-03 -0.22007146D-03
 -0.47688167D-04  0.20453296D-09  0.28286997D-09 -0.53338708D-04 -0.90472545D-04
 -0.10299979D-03  0.16060808D-03 -0.37056417D-05 -0.62854697D-05 -0.71557851D-05
  0.58761149D-04 -0.39786647D-05 -0.67485684D-05 -0.76830066D-05  0.55245295D-04
 -0.51750709D-04 -0.87778998D-04 -0.99933287D-04  0.16058882D-03 -0.40736603D-05
 -0.69096990D-05 -0.78664481D-05  0.54977624D-04 -0.36036250D-05 -0.61124301D-05
 -0.69587856D-05  0.59055727D-04
MO    3     MO 0.0        OCC NO =    1.0000000  ORB. ENERGY =  -10.423036
  0.40197606D-03  0.74156735D-03  0.11971196D-02  0.15582941D-02  0.13296951D-02
  0.45911178D-03 -0.72163838D-04 -0.33260247D-04  0.93265205D-04  0.14590148D-03
  0.11186800D-03  0.55829971D-04 -0.24902983D-03 -0.19094028D-03 -0.95292580D-04
  0.15251522D-08  0.11693899D-08  0.58360753D-09 -0.82938627D-03 -0.38752364D-03
 -0.80532719D-04 -0.10045610D-08  0.10909617D-03  0.47938907D-04  0.45503382D-04
 -0.31655680D-04 -0.30513686D-09  0.18580986D-08 -0.18107415D+00 -0.33404645D+00
 -0.53925454D+00 -0.70194919D+00 -0.59897451D+00 -0.20681151D+00  0.68590100D-02
  0.31613114D-02 -0.88646472D-02  0.14691616D-03  0.11264600D-03  0.56218247D-04
 -0.27190282D-03 -0.20847784D-03 -0.10404505D-03 -0.24314302D-08 -0.18642664D-08
 -0.93039962D-09  0.15470491D-02 -0.42434926D-04  0.46004194D-03  0.29240847D-08
  0.35507479D-02  0.35764617D-02  0.35558954D-02  0.13551573D-04  0.30610360D-09
 -0.67944910D-09 -0.53842795D-01 -0.99329443D-01 -0.16034852D+00 -0.20872613D+00
 -0.17810638D+00 -0.61495854D-01  0.19223057D-02  0.88598895D-03 -0.24844055D-02
 -0.57748253D-04 -0.44277697D-04 -0.22097674D-04 -0.16088764D-03 -0.12335843D-03
 -0.61564504D-04  0.25947961D-08  0.19895251D-08  0.99291246D-09 -0.77479913D-03
  0.38209503D-03 -0.12102634D-03 -0.50737121D-09  0.12160265D-02  0.12542090D-02
  0.11629726D-02  0.25947300D-04 -0.17811905D-08  0.13555245D-08 -0.38869659D-02
 -0.71706930D-02 -0.11575722D-01 -0.15068150D-01 -0.12857680D-01 -0.44394479D-02
  0.35122874D-03  0.16188100D-03 -0.45393123D-03  0.44215996D-03  0.33902021D-03
  0.16919485D-03 -0.22624026D-03 -0.17346668D-03 -0.86572030D-04  0.23229212D-09
  0.17810686D-09  0.88887806D-10  0.14682001D-02 -0.59688396D-03 -0.10142694D-03
  0.11797544D-08 -0.31421617D-03 -0.23595060D-03 -0.11802323D-03  0.27774573D-03
 -0.37654474D-08 -0.38398107D-09  0.47797945D+00  0.88177875D+00  0.14234643D+01
  0.18529276D+01  0.15811065D+01  0.54591806D+00 -0.17914220D-01 -0.82566476D-02
  0.23152502D-01  0.37864616D-03  0.29032186D-03  0.14489095D-03 -0.58615168D-03
 -0.44942393D-03 -0.22429404D-03  0.20409892D-08  0.15649011D-08  0.78099530D-09
 -0.30328444D-02 -0.94460047D-04  0.66573076D-03 -0.35185869D-08 -0.93003387D-02
 -0.94420549D-02 -0.95998931D-02 -0.90594028D-04  0.40459128D-09  0.35863881D-08
  0.13893549D+00  0.25630886D+00  0.41376197D+00  0.53859514D+00  0.45958421D+00
  0.15868338D+00 -0.49723347D-02 -0.22917445D-02  0.64262909D-02 -0.22594990D-03
 -0.17324405D-03 -0.86460923D-04 -0.30539189D-03 -0.23415513D-03 -0.11685982D-03
  0.11722087D-08  0.89877532D-09  0.44855187D-09  0.80399940D-03  0.52667087D-03
 -0.57888120D-04 -0.56086283D-09 -0.30674251D-02 -0.30266520D-02 -0.30018096D-02
 -0.16239439D-03  0.18802532D-08  0.14277730D-08 -0.12820977D-04 -0.21746803D-04
 -0.24757966D-04 -0.81902969D-04  0.40963255D-04  0.69481434D-04  0.79102157D-04
  0.24996695D-04 -0.31190732D-05 -0.52905385D-05 -0.60230911D-05 -0.11050006D-03
  0.86068796D-05  0.14598897D-04  0.16620328D-04  0.12690349D-03 -0.86119485D-04
 -0.14607495D-03 -0.16630116D-03  0.11482855D-03 -0.10450803D-04 -0.17726540D-04
 -0.20181039D-04  0.19399104D-03
MO    4     MO 0.0        OCC NO =    1.0000000  ORB. ENERGY =  -10.423018
 -0.48307208D-02 -0.89117365D-02 -0.14386306D-01 -0.18726696D-01 -0.15979523D-01
 -0.55173454D-02  0.40500436D-03  0.18666614D-03 -0.52343134D-03 -0.46132269D-03
 -0.35371298D-03 -0.17652757D-03  0.81449778D-04  0.62450524D-04  0.31167188D-04
 -0.68600742D-09 -0.52598698D-09 -0.26250437D-09  0.12263942D-02  0.45393450D-03
  0.64250375D-04  0.85900310D-09 -0.32333426D-03 -0.27299298D-03 -0.11752695D-03
  0.34327076D-03 -0.71965826D-09 -0.23098579D-08  0.47821247D+00  0.88220863D+00
  0.14241583D+01  0.18538309D+01  0.15818773D+01  0.54618421D+00 -0.17858522D-01
 -0.82309764D-02  0.23080517D-01 -0.37551677D-03 -0.28792244D-03 -0.14369348D-03
  0.54210655D-03  0.41565292D-03  0.20743994D-03  0.45596248D-08  0.34960311D-08
  0.17447645D-08 -0.26809321D-02  0.88494992D-04 -0.48163304D-03 -0.26126008D-08
 -0.92805948D-02 -0.94471056D-02 -0.96762994D-02 -0.10830559D-03 -0.18426800D-09
  0.33580157D-08  0.13805871D+00  0.25469136D+00  0.41115083D+00  0.53519622D+00
  0.45668390D+00  0.15768198D+00 -0.49452146D-02 -0.22792449D-02  0.63912406D-02
  0.25076828D-03  0.19227321D-03  0.95957807D-04  0.26563690D-03  0.20367352D-03
  0.10164736D-03 -0.30329545D-08 -0.23254771D-08 -0.11605761D-08  0.38674892D-03
 -0.36496016D-03 -0.30177486D-04  0.15140591D-08 -0.30234045D-02 -0.29352316D-02
 -0.29829544D-02 -0.19366839D-03 -0.12224850D-08 -0.36487108D-08 -0.29055784D-02
 -0.53602249D-02 -0.86530649D-02 -0.11263719D-01 -0.96113522D-02 -0.33185690D-02
  0.21482927D-03  0.99014616D-04 -0.27764732D-03  0.19697267D-03  0.15102615D-03
  0.75372635D-04  0.13231699D-03  0.10145228D-03  0.50631796D-04  0.13994486D-08
  0.10730084D-08  0.53550640D-09  0.19366009D-03 -0.11376902D-04  0.17446289D-04
 -0.13936160D-08 -0.13292029D-03 -0.14537596D-03 -0.43946471D-04  0.20409550D-03
  0.11826797D-08  0.43874017D-08  0.18177614D+00  0.33534149D+00  0.54134514D+00
  0.70467053D+00  0.60129664D+00  0.20761328D+00 -0.67158650D-02 -0.30953360D-02
  0.86796453D-02  0.13925068D-03  0.10676859D-03  0.53285008D-04 -0.15626155D-03
 -0.11981144D-03 -0.59794307D-04  0.22919075D-08  0.17572893D-08  0.87701051D-09
 -0.62155371D-03 -0.26914196D-04 -0.24475615D-04 -0.27711207D-09 -0.35001803D-02
 -0.35914549D-02 -0.37588950D-02 -0.61935198D-04  0.15397647D-08 -0.37429485D-09
  0.51229852D-01  0.94509074D-01  0.15256695D+00  0.19859684D+00  0.16946304D+00
  0.58511515D-01 -0.18396450D-02 -0.84789072D-03  0.23775741D-02 -0.12319245D-03
 -0.94456155D-04 -0.47140241D-04 -0.55765086D-04 -0.42757131D-04 -0.21338805D-04
  0.19032794D-08  0.14593139D-08  0.72829993D-09 -0.32248428D-03 -0.43590258D-04
  0.11050195D-03 -0.70559246D-09 -0.10945137D-02 -0.10074077D-02 -0.11073386D-02
 -0.10912015D-03 -0.79826851D-10  0.17306252D-08  0.12868699D-06  0.21827749D-06
  0.24850121D-06  0.96971389D-04 -0.78767383D-04 -0.13360439D-03 -0.15210387D-03
  0.17565248D-03 -0.16752208D-04 -0.28414916D-04 -0.32349377D-04  0.16129972D-03
 -0.95001217D-05 -0.16114005D-04 -0.18345225D-04  0.31135523D-05 -0.21612984D-04
 -0.36659711D-04 -0.41735785D-04  0.13518536D-03 -0.13433823D-04 -0.22786306D-04
 -0.25941404D-04  0.24329998D-04
MO    5     MO 0.0        OCC NO =    1.0000000  ORB. ENERGY =  -10.421966
 -0.47115118D-02 -0.86918193D-02 -0.14031291D-01 -0.18264572D-01 -0.15585193D-01
 -0.53811925D-02  0.44846448D-03  0.20669687D-03 -0.57959960D-03 -0.81210327D-04
 -0.62266928D-04 -0.31075561D-04 -0.45903445D-03 -0.35195850D-03 -0.17565196D-03
 -0.35394866D-09 -0.27138539D-09 -0.13544033D-09  0.21149087D-02  0.60103106D-03
  0.61107621D-03  0.61082093D-09 -0.20867268D-03 -0.52719957D-03 -0.16408376D-03
  0.12635140D-03 -0.23991781D-10 -0.18728800D-08  0.24689491D-01  0.45547289D-01
  0.73527447D-01  0.95710889D-01  0.81670275D-01  0.28198783D-01 -0.10344901D-02
 -0.47679555D-03  0.13369845D-02  0.68863828D-04  0.52800416D-04  0.26351108D-04
  0.54526122D-04  0.41807172D-04  0.20864709D-04  0.17796902D-08  0.13645536D-08
  0.68100786D-09 -0.14429294D-02 -0.13747483D-04 -0.61233952D-03 -0.36516609D-08
 -0.33854508D-03 -0.36022331D-03 -0.39187375D-03 -0.56698395D-04 -0.44815210D-09
 -0.18426877D-08 -0.79970747D-01 -0.14753041D+00 -0.23815983D+00 -0.31001334D+00
 -0.26453494D+00 -0.91337558D-01  0.31268464D-02  0.14411607D-02 -0.40411649D-02
  0.13644188D-03  0.10461498D-03  0.52210207D-04 -0.88242315D-04 -0.67658610D-04
 -0.33766388D-04 -0.28189547D-08 -0.21613956D-08 -0.10786879D-08  0.15935569D-02
 -0.55473454D-03  0.29348528D-03 -0.52613817D-09  0.15161840D-02  0.14954827D-02
  0.14700223D-02  0.89557664D-05  0.73921506D-08 -0.48865997D-08  0.20332450D-02
  0.37509400D-02  0.60551802D-02  0.78820455D-02  0.67257637D-02  0.23222446D-02
 -0.23016623D-03 -0.10608340D-03  0.29746893D-03 -0.86272843D-04 -0.66148544D-04
 -0.33012759D-04 -0.50144553D-04 -0.38447662D-04 -0.19188078D-04  0.50657507D-09
  0.38840963D-09  0.19384363D-09 -0.16083606D-02  0.59685023D-03  0.33059377D-03
 -0.12063336D-08  0.23456794D-03  0.18622825D-03  0.10488513D-03 -0.12412506D-03
  0.31660385D-09 -0.40218317D-09 -0.14669465D+00 -0.27062298D+00 -0.43686941D+00
 -0.56867416D+00 -0.48525069D+00 -0.16754540D+00  0.57749338D-02  0.26616617D-02
 -0.74635773D-02  0.21144169D-03  0.16212008D-03  0.80909282D-04  0.48046203D-03
  0.36838781D-03  0.18385134D-03  0.19134151D-09  0.14670853D-09  0.73217840D-10
  0.28211004D-02 -0.17281908D-03 -0.96532278D-03  0.29622096D-08  0.23656555D-02
  0.25993991D-02  0.26954694D-02 -0.12106836D-03  0.22172656D-08 -0.35789917D-08
  0.50504456D+00  0.93170860D+00  0.15040666D+01  0.19578478D+01  0.16706350D+01
  0.57683014D+00 -0.19053434D-01 -0.87817105D-02  0.24624833D-01  0.58958880D-03
  0.45205930D-03  0.22560927D-03 -0.54156347D-03 -0.41523652D-03 -0.20723213D-03
 -0.49222283D-09 -0.37740524D-09 -0.18835167D-09 -0.41271075D-02 -0.95431026D-03
  0.47151507D-03  0.10401221D-08 -0.97630284D-02 -0.95940292D-02 -0.10026622D-01
  0.19622475D-03 -0.56135361D-08  0.13770450D-08  0.15734650D-04  0.26688945D-04
  0.30384421D-04  0.18716095D-03 -0.23491946D-04 -0.39846786D-04 -0.45364158D-04
 -0.12685455D-03  0.32857315D-04  0.55732224D-04  0.63449168D-04  0.11972211D-03
 -0.19025556D-04 -0.32270943D-04 -0.36739328D-04 -0.15129702D-03  0.40987281D-04
  0.69522187D-04  0.79148552D-04  0.14235242D-03 -0.97104694D-04 -0.16470794D-03
 -0.18751417D-03  0.41702622D-04
MO    6     MO 0.0        OCC NO =    1.0000000  ORB. ENERGY =  -10.421953
  0.60147355D-03  0.11096013D-02  0.17912405D-02  0.23316629D-02  0.19896121D-02
  0.68696526D-03 -0.95795320D-04 -0.44151975D-04  0.12380675D-03  0.64291445D-04
  0.49294603D-04  0.24601461D-04 -0.97037271D-04 -0.74402024D-04 -0.37131825D-04
 -0.51381138D-09 -0.39395798D-09 -0.19661264D-09 -0.10017822D-02 -0.43165008D-03
 -0.14844365D-03 -0.14676867D-09  0.17875067D-03  0.23862170D-04  0.56827444D-04
 -0.89410443D-04  0.22358353D-08  0.39182471D-08 -0.14636960D+00 -0.27002334D+00
 -0.43590140D+00 -0.56741410D+00 -0.48417548D+00 -0.16717416D+00  0.57415464D-02
  0.26462735D-02 -0.74204270D-02 -0.20009040D-03 -0.15341662D-03 -0.76565648D-04
 -0.48782360D-03 -0.37403220D-03 -0.18666828D-03 -0.61021494D-08 -0.46787411D-08
 -0.23350197D-08  0.24973335D-02  0.17749541D-03  0.81568723D-03  0.38960348D-08
  0.23803405D-02  0.26190572D-02  0.27098942D-02 -0.14591071D-03 -0.57750208D-08
 -0.40920971D-08  0.50513034D+00  0.93186684D+00  0.15043220D+01  0.19581803D+01
  0.16709188D+01  0.57692810D+00 -0.19020860D-01 -0.87666970D-02  0.24582734D-01
 -0.57588123D-03 -0.44154920D-03 -0.22036400D-03  0.54050697D-03  0.41442646D-03
  0.20682785D-03 -0.53491562D-08 -0.41013937D-08 -0.20468829D-08 -0.38213461D-02
  0.82297277D-03 -0.39999814D-03  0.53920019D-08 -0.97740215D-02 -0.96035613D-02
 -0.10066656D-01  0.20966317D-03 -0.15955851D-07  0.89077851D-08 -0.42866826D-02
 -0.79080924D-02 -0.12766113D-01 -0.16617686D-01 -0.14179902D-01 -0.48959793D-02
  0.39629728D-03  0.18265306D-03 -0.51217823D-03  0.57227349D-04  0.43878301D-04
  0.21898347D-04  0.46624575D-03  0.35748766D-03  0.17841140D-03 -0.45503026D-08
 -0.34888834D-08 -0.17411973D-08  0.16995247D-02 -0.43750144D-03 -0.53472620D-03
  0.18475731D-08 -0.14296671D-03 -0.49391573D-03 -0.13846930D-03  0.92377686D-04
 -0.65772447D-09  0.52411749D-08 -0.21962501D-01 -0.40516526D-01 -0.65406235D-01
 -0.85139484D-01 -0.72649676D-01 -0.25084187D-01  0.79869385D-03  0.36811726D-03
 -0.10322392D-02 -0.34299020D-05 -0.26298313D-05 -0.13124701D-05  0.99514923D-04
  0.76301731D-04  0.38079911D-04 -0.21264013D-08 -0.16303896D-08 -0.81367868D-09
 -0.59686098D-03 -0.42088588D-04  0.32907161D-03 -0.62303021D-09  0.41708937D-03
  0.47054250D-03  0.46865876D-03 -0.99125843D-04  0.12262875D-09 -0.11760218D-10
  0.80706881D-01  0.14888844D+00  0.24035210D+00  0.31286702D+00  0.26696999D+00
  0.92178323D-01 -0.29292379D-02 -0.13500831D-02  0.37857738D-02  0.48964705D-04
  0.37543030D-04  0.18736603D-04 -0.83880698D-04 -0.64314399D-04 -0.32097392D-04
 -0.73700256D-09 -0.56508682D-09 -0.28201793D-09  0.32929203D-03  0.27198870D-03
 -0.15498440D-03 -0.39789269D-09 -0.15913527D-02 -0.15580659D-02 -0.17259786D-02
  0.73521653D-04  0.14911598D-09 -0.10309830D-08 -0.14874010D-04 -0.25229136D-04
 -0.28722480D-04 -0.98070487D-04  0.35469461D-04  0.60162919D-04  0.68493356D-04
  0.10829077D-03 -0.91419553D-04 -0.15506487D-03 -0.17653587D-03  0.82911353D-04
  0.10339651D-04  0.17538006D-04  0.19966400D-04  0.14749113D-03 -0.11328936D-04
 -0.19216020D-04 -0.21876760D-04 -0.87026401D-04  0.28724238D-05  0.48721744D-05
  0.55467984D-05  0.13954423D-03
MO    7     MO 0.0        OCC NO =    1.0000000  ORB. ENERGY =   -1.101979
 -0.53901976D-01 -0.99438620D-01 -0.16052477D+00 -0.20895555D+00 -0.17830215D+00
 -0.61563447D-01 -0.78624479D-01 -0.36237950D-01  0.10161500D+00  0.74487870D-01
  0.57112574D-01  0.28503177D-01  0.45429731D-01  0.34832636D-01  0.17383927D-01
 -0.19624411D-06 -0.15046754D-06 -0.75093848D-07  0.24356505D-01  0.17961979D-02
  0.11006325D-02 -0.87978344D-08  0.23187808D-02  0.20300234D-02 -0.95092792D-02
  0.49083309D-03 -0.26751979D-07  0.52055036D-07 -0.48659355D-01 -0.89767008D-01
 -0.14491178D+00 -0.18863209D+00 -0.16096010D+00 -0.55575655D-01 -0.69717427D-01
 -0.32132699D-01  0.90103441D-01 -0.14370916D-01 -0.11018707D-01 -0.54991070D-02
  0.86396773D-01  0.66243565D-01  0.33060182D-01  0.64922587D-07  0.49778522D-07
  0.24842971D-07  0.18755065D-01 -0.11414195D-03  0.12053780D-02 -0.21522458D-08
  0.36184138D-02  0.36236018D-02 -0.10925242D-01 -0.15891116D-02  0.67932921D-07
  0.12601926D-06 -0.48523673D-01 -0.89516701D-01 -0.14450771D+00 -0.18810610D+00
 -0.16051128D+00 -0.55420687D-01 -0.69493054D-01 -0.32029285D-01  0.89813458D-01
 -0.70735852D-01 -0.54235765D-01 -0.27067448D-01  0.51543156D-01  0.39520023D-01
  0.19723261D-01 -0.90837424D-06 -0.69648376D-06 -0.34759421D-06  0.18606249D-01
 -0.99955607D-03  0.62801441D-03 -0.31826537D-07  0.30311967D-02  0.42766259D-02
 -0.10956034D-01 -0.91682550D-03 -0.12517095D-07 -0.36044181D-07 -0.53902182D-01
 -0.99439000D-01 -0.16052538D+00 -0.20895635D+00 -0.17830283D+00 -0.61563682D-01
 -0.78624785D-01 -0.36238092D-01  0.10161539D+00 -0.74509577D-01 -0.57129218D-01
 -0.28511483D-01 -0.45394753D-01 -0.34805817D-01 -0.17370542D-01 -0.46789958D-07
 -0.35875572D-07 -0.17904425D-07  0.24356587D-01 -0.17961395D-02 -0.11007128D-02
 -0.14959362D-09  0.23210998D-02  0.20277026D-02 -0.95093041D-02  0.48846874D-03
 -0.21313641D-07  0.39838140D-08 -0.48665549D-01 -0.89778435D-01 -0.14493023D+00
 -0.18865610D+00 -0.16098059D+00 -0.55582729D-01 -0.69726706D-01 -0.32136975D-01
  0.90115433D-01  0.14391272D-01  0.11034315D-01  0.55068964D-02 -0.86403034D-01
 -0.66248366D-01 -0.33062578D-01  0.47721402D-06  0.36589744D-06  0.18260847D-06
  0.18757941D-01  0.11387767D-03 -0.12053850D-02  0.11627776D-07  0.36186641D-02
  0.36232378D-02 -0.10926084D-01 -0.15904357D-02  0.37966340D-07 -0.73481798D-07
 -0.48529655D-01 -0.89527737D-01 -0.14452553D+00 -0.18812929D+00 -0.16053107D+00
 -0.55427520D-01 -0.69502025D-01 -0.32033420D-01  0.89825052D-01  0.70732463D-01
  0.54233167D-01  0.27066151D-01 -0.51563418D-01 -0.39535558D-01 -0.19731015D-01
  0.80036852D-08  0.61367182D-08  0.30626525D-08  0.18609008D-01  0.99967643D-03
 -0.62776654D-03  0.52383751D-08  0.30304666D-02  0.42772405D-02 -0.10956845D-01
 -0.91709212D-03 -0.80547346D-07 -0.17305543D-07  0.76249297D-02  0.12933324D-01
  0.14724132D-01  0.23847697D-03  0.64345988D-02  0.10914297D-01  0.12425542D-01
  0.60281749D-04  0.64044503D-02  0.10863160D-01  0.12367324D-01  0.52654000D-04
  0.76249679D-02  0.12933389D-01  0.14724206D-01  0.23847292D-03  0.64355823D-02
  0.10915966D-01  0.12427441D-01  0.60191953D-04  0.64053934D-02  0.10864760D-01
  0.12369145D-01  0.52561319D-04
MO    8     MO 0.0        OCC NO =    1.0000000  ORB. ENERGY =   -0.999262
 -0.72632103D-01 -0.13399205D+00 -0.21630471D+00 -0.28156446D+00 -0.24025947D+00
 -0.82955820D-01 -0.10946738D+00 -0.50453415D-01  0.14147664D+00  0.35351394D-01
  0.27105206D-01  0.13527398D-01  0.19341824D-01  0.14830084D-01  0.74012512D-02
 -0.37407124D-06 -0.28681410D-06 -0.14314034D-06  0.40939792D-01  0.14112332D-03
  0.45299596D-04 -0.19220743D-07 -0.44279974D-04  0.57208243D-03 -0.10323981D-01
 -0.18092409D-02  0.14080243D-07  0.99579897D-07 -0.34774035D-01 -0.64151305D-01
 -0.10356010D+00 -0.13480448D+00 -0.11502890D+00 -0.39716716D-01 -0.51584215D-01
 -0.23775118D-01  0.66667911D-01 -0.13160160D+00 -0.10090376D+00 -0.50358049D-01
  0.21161336D-01  0.16225170D-01  0.80974971D-02 -0.17729832D-06 -0.13594111D-06
 -0.67844140D-07  0.15477764D-01 -0.14805022D-02 -0.11594002D-02 -0.23872258D-07
  0.28977405D-02 -0.57725023D-03 -0.65158236D-02 -0.19336047D-01  0.17158532D-07
  0.95213944D-07  0.33428024D-01  0.61668176D-01  0.99551557D-01  0.12958655D+00
  0.11057644D+00  0.38179386D-01  0.49566768D-01  0.22845278D-01 -0.64060545D-01
 -0.41668708D-01 -0.31948922D-01 -0.15944751D-01 -0.12735135D+00 -0.97644938D-01
 -0.48731667D-01  0.73377609D-06  0.56261296D-06  0.28078330D-06 -0.14771865D-01
 -0.16892809D-02 -0.79605552D-03  0.38007426D-07  0.77403736D-02 -0.10023466D-01
  0.63036797D-02  0.88060123D-02  0.18049060D-06  0.11771573D-06  0.72632039D-01
  0.13399193D+00  0.21630452D+00  0.28156422D+00  0.24025926D+00  0.82955747D-01
  0.10946731D+00  0.50453381D-01 -0.14147655D+00  0.35391402D-01  0.27135882D-01
  0.13542707D-01  0.19276017D-01  0.14779628D-01  0.73760700D-02  0.12394426D-06
  0.95032601D-07  0.47427928D-07 -0.40939736D-01  0.14123075D-03  0.45032156D-04
  0.74172716D-08  0.39897348D-04 -0.56760748D-03  0.10323949D-01  0.18137543D-02
  0.64504514D-07  0.69284209D-08  0.34786613D-01  0.64174508D-01  0.10359755D+00