 Generated by Multiwfn
GAUSSIAN             21 MOL ORBITALS    192 PRIMITIVES       12 NUCLEI
  C    1    (CENTRE  1)  -2.23916664 -1.37622261  0.00000189  CHARGE =  6.0
  C    2    (CENTRE  2)   0.07248833 -2.62706155  0.00000042  CHARGE =  6.0
  C    3    (CENTRE  3)   2.31149292 -1.25092553  0.00001140  CHARGE =  6.0
  C    4    (CENTRE  4)   2.23910705  1.37631925  0.00000106  CHARGE =  6.0
  C    5    (CENTRE  5)  -0.07237604  2.62706426 -0.00000627  CHARGE =  6.0
  C    6    (CENTRE  6)  -2.31154670  1.25082670  0.00000011  CHARGE =  6.0
  H    7    (CENTRE  7)  -3.98087944 -2.44733165 -0.00001039  CHARGE =  1.0
  H    8    (CENTRE  8)   0.12880213 -4.67101895 -0.00002338  CHARGE =  1.0
  H    9    (CENTRE  9)   4.10987627 -2.22388247 -0.00002372  CHARGE =  1.0
  H   10    (CENTRE 10)   3.98096145  2.44719695 -0.00000771  CHARGE =  1.0
  H   11    (CENTRE 11)  -0.12895092  4.67101421 -0.00000070  CHARGE =  1.0
  H   12    (CENTRE 12)  -4.10980304  2.22401887  0.00001425  CHARGE =  1.0
CENTRE ASSIGNMENTS    1  1  1  1  1  1  1  1  1  1  1  1  1  1  1  1  1  1  1  1
CENTRE ASSIGNMENTS    1  1  1  1  1  1  1  1  2  2  2  2  2  2  2  2  2  2  2  2
CENTRE ASSIGNMENTS    2  2  2  2  2  2  2  2  2  2  2  2  2  2  2  2  3  3  3  3
CENTRE ASSIGNMENTS    3  3  3  3  3  3  3  3  3  3  3  3  3  3  3  3  3  3  3  3
CENTRE ASSIGNMENTS    3  3  3  3  4  4  4  4  4  4  4  4  4  4  4  4  4  4  4  4
CENTRE ASSIGNMENTS    4  4  4  4  4  4  4  4  4  4  4  4  5  5  5  5  5  5  5  5
CENTRE ASSIGNMENTS    5  5  5  5  5  5  5  5  5  5  5  5  5  5  5  5  5  5  5  5
CENTRE ASSIGNMENTS    6  6  6  6  6  6  6  6  6  6  6  6  6  6  6  6  6  6  6  6
CENTRE ASSIGNMENTS    6  6  6  6  6  6  6  6  7  7  7  7  8  8  8  8  9  9  9  9
CENTRE ASSIGNMENTS   10 10 10 10 11 11 11 11 12 12 12 12
TYPE ASSIGNMENTS      1  1  1  1  1  1  1  1  1  2  2  2  3  3  3  4  4  4  1  2
TYPE ASSIGNMENTS      3  4  5  6  7  8  9 10  1  1  1  1  1  1  1  1  1  2  2  2
TYPE ASSIGNMENTS      3  3  3  4  4  4  1  2  3  4  5  6  7  8  9 10  1  1  1  1
TYPE ASSIGNMENTS      1  1  1  1  1  2  2  2  3  3  3  4  4  4  1  2  3  4  5  6
TYPE ASSIGNMENTS      7  8  9 10  1  1  1  1  1  1  1  1  1  2  2  2  3  3  3  4
TYPE ASSIGNMENTS      4  4  1  2  3  4  5  6  7  8  9 10  1  1  1  1  1  1  1  1
TYPE ASSIGNMENTS      1  2  2  2  3  3  3  4  4  4  1  2  3  4  5  6  7  8  9 10
TYPE ASSIGNMENTS      1  1  1  1  1  1  1  1  1  2  2  2  3  3  3  4  4  4  1  2
TYPE ASSIGNMENTS      3  4  5  6  7  8  9 10  1  1  1  1  1  1  1  1  1  1  1  1
TYPE ASSIGNMENTS      1  1  1  1  1  1  1  1  1  1  1  1
EXPONENTS  0.3047525D+04 0.4573695D+03 0.1039487D+03 0.2921016D+02 0.9286663D+01
EXPONENTS  0.3163927D+01 0.7868272D+01 0.1881289D+01 0.5442493D+00 0.7868272D+01
EXPONENTS  0.1881289D+01 0.5442493D+00 0.7868272D+01 0.1881289D+01 0.5442493D+00
EXPONENTS  0.7868272D+01 0.1881289D+01 0.5442493D+00 0.1687145D+00 0.1687145D+00
EXPONENTS  0.1687145D+00 0.1687145D+00 0.8000000D+00 0.8000000D+00 0.8000000D+00
EXPONENTS  0.8000000D+00 0.8000000D+00 0.8000000D+00 0.3047525D+04 0.4573695D+03
EXPONENTS  0.1039487D+03 0.2921016D+02 0.9286663D+01 0.3163927D+01 0.7868272D+01
EXPONENTS  0.1881289D+01 0.5442493D+00 0.7868272D+01 0.1881289D+01 0.5442493D+00
EXPONENTS  0.7868272D+01 0.1881289D+01 0.5442493D+00 0.7868272D+01 0.1881289D+01
EXPONENTS  0.5442493D+00 0.1687145D+00 0.1687145D+00 0.1687145D+00 0.1687145D+00
EXPONENTS  0.8000000D+00 0.8000000D+00 0.8000000D+00 0.8000000D+00 0.8000000D+00
EXPONENTS  0.8000000D+00 0.3047525D+04 0.4573695D+03 0.1039487D+03 0.2921016D+02
EXPONENTS  0.9286663D+01 0.3163927D+01 0.7868272D+01 0.1881289D+01 0.5442493D+00
EXPONENTS  0.7868272D+01 0.1881289D+01 0.5442493D+00 0.7868272D+01 0.1881289D+01
EXPONENTS  0.5442493D+00 0.7868272D+01 0.1881289D+01 0.5442493D+00 0.1687145D+00
EXPONENTS  0.1687145D+00 0.1687145D+00 0.1687145D+00 0.8000000D+00 0.8000000D+00
EXPONENTS  0.8000000D+00 0.8000000D+00 0.8000000D+00 0.8000000D+00 0.3047525D+04
EXPONENTS  0.4573695D+03 0.1039487D+03 0.2921016D+02 0.9286663D+01 0.3163927D+01
EXPONENTS  0.7868272D+01 0.1881289D+01 0.5442493D+00 0.7868272D+01 0.1881289D+01
EXPONENTS  0.5442493D+00 0.7868272D+01 0.1881289D+01 0.5442493D+00 0.7868272D+01
EXPONENTS  0.1881289D+01 0.5442493D+00 0.1687145D+00 0.1687145D+00 0.1687145D+00
EXPONENTS  0.1687145D+00 0.8000000D+00 0.8000000D+00 0.8000000D+00 0.8000000D+00
EXPONENTS  0.8000000D+00 0.8000000D+00 0.3047525D+04 0.4573695D+03 0.1039487D+03
EXPONENTS  0.2921016D+02 0.9286663D+01 0.3163927D+01 0.7868272D+01 0.1881289D+01
EXPONENTS  0.5442493D+00 0.7868272D+01 0.1881289D+01 0.5442493D+00 0.7868272D+01
EXPONENTS  0.1881289D+01 0.5442493D+00 0.7868272D+01 0.1881289D+01 0.5442493D+00
EXPONENTS  0.1687145D+00 0.1687145D+00 0.1687145D+00 0.1687145D+00 0.8000000D+00
EXPONENTS  0.8000000D+00 0.8000000D+00 0.8000000D+00 0.8000000D+00 0.8000000D+00
EXPONENTS  0.3047525D+04 0.4573695D+03 0.1039487D+03 0.2921016D+02 0.9286663D+01
EXPONENTS  0.3163927D+01 0.7868272D+01 0.1881289D+01 0.5442493D+00 0.7868272D+01
EXPONENTS  0.1881289D+01 0.5442493D+00 0.7868272D+01 0.1881289D+01 0.5442493D+00
EXPONENTS  0.7868272D+01 0.1881289D+01 0.5442493D+00 0.1687145D+00 0.1687145D+00
EXPONENTS  0.1687145D+00 0.1687145D+00 0.8000000D+00 0.8000000D+00 0.8000000D+00
EXPONENTS  0.8000000D+00 0.8000000D+00 0.8000000D+00 0.1873114D+02 0.2825394D+01
EXPONENTS  0.6401217D+00 0.1612778D+00 0.1873114D+02 0.2825394D+01 0.6401217D+00
EXPONENTS  0.1612778D+00 0.1873114D+02 0.2825394D+01 0.6401217D+00 0.1612778D+00
EXPONENTS  0.1873114D+02 0.2825394D+01 0.6401217D+00 0.1612778D+00 0.1873114D+02
EXPONENTS  0.2825394D+01 0.6401217D+00 0.1612778D+00 0.1873114D+02 0.2825394D+01
EXPONENTS  0.6401217D+00 0.1612778D+00
MO    1     MO 0.0        OCC NO =    2.0000000  ORB. ENERGY =  -10.185531
  0.21743780D+00  0.40113029D+00  0.64754866D+00  0.84291595D+00  0.71926170D+00
  0.24834378D+00 -0.79132900D-02 -0.36472281D-02  0.10227208D-01 -0.13945601D-03
 -0.10692602D-03 -0.53363579D-04 -0.85073681D-04 -0.65229103D-04 -0.32553894D-04
 -0.17348201D-08 -0.13301500D-08 -0.66383809D-09 -0.48168755D-03  0.47226075D-04
  0.28601464D-04  0.10471222D-08 -0.44226563D-02 -0.44675080D-02 -0.45459242D-02
  0.90316570D-04  0.17174817D-08  0.88908778D-09  0.21775009D+00  0.40170640D+00
  0.64847869D+00  0.84412657D+00  0.72029473D+00  0.24870046D+00 -0.79249778D-02
 -0.36526150D-02  0.10242314D-01  0.49102527D-05  0.37648704D-05  0.18789342D-05
 -0.16282981D-03 -0.12484757D-03 -0.62307687D-04  0.81172565D-10  0.62237974D-10
  0.31061111D-10 -0.48386530D-03 -0.18126656D-05  0.54843340D-04 -0.52212759D-09
 -0.45010073D-02 -0.44006193D-02 -0.45520563D-02 -0.50752862D-05 -0.12502522D-08
 -0.15498816D-09  0.21674754D+00  0.39985689D+00  0.64549301D+00  0.84024010D+00
  0.71697840D+00  0.24755541D+00 -0.78873737D-02 -0.36352833D-02  0.10193714D-01
  0.14439314D-03  0.11071150D-03  0.55252797D-04 -0.77734905D-04 -0.59602195D-04
 -0.29745672D-04 -0.54685315D-08 -0.41929231D-08 -0.20925625D-08 -0.47712670D-03
 -0.49301172D-04  0.26448738D-04  0.25779912D-08 -0.44043509D-02 -0.44597077D-02
 -0.45322131D-02 -0.84792346D-04 -0.45276801D-08  0.22199808D-08  0.21731845D+00
  0.40091011D+00  0.64719323D+00  0.84245328D+00  0.71886691D+00  0.24820747D+00
 -0.79088716D-02 -0.36451917D-02  0.10221498D-01  0.13947388D-03  0.10693973D-03
  0.53370419D-04  0.85079681D-04  0.65233703D-04  0.32556190D-04  0.62592222D-09
  0.47991746D-09  0.23951245D-09 -0.48125915D-03 -0.47244937D-04 -0.28612894D-04
 -0.46408288D-09 -0.44201138D-02 -0.44652496D-02 -0.45435027D-02  0.90159554D-04
 -0.73167120D-09  0.23678550D-08  0.21767090D+00  0.40156032D+00  0.64824286D+00
  0.84381959D+00  0.72003279D+00  0.24861002D+00 -0.79220461D-02 -0.36512638D-02
  0.10238525D-01 -0.48264820D-05 -0.37006403D-05 -0.18468789D-05  0.16284365D-03
  0.12485818D-03  0.62312983D-04  0.15311303D-08  0.11739736D-08  0.58589510D-09
 -0.48357947D-03  0.17579170D-05 -0.54860233D-04 -0.34503232D-09 -0.44994014D-02
 -0.43990406D-02 -0.45504503D-02 -0.54104820D-05 -0.81242883D-10  0.85199983D-09
  0.21678784D+00  0.39993123D+00  0.64561301D+00  0.84039631D+00  0.71711169D+00
  0.24760143D+00 -0.78888659D-02 -0.36359711D-02  0.10195642D-01 -0.14430265D-03
 -0.11064212D-03 -0.55218171D-04  0.77887864D-04  0.59719474D-04  0.29804203D-04
  0.21586042D-08  0.16550808D-08  0.82600131D-09 -0.47727331D-03  0.49243069D-04
 -0.26538562D-04 -0.77686942D-09 -0.44052821D-02 -0.44603978D-02 -0.45330310D-02
 -0.84954211D-04 -0.12492652D-08  0.19784327D-08 -0.41346379D-04 -0.70131284D-04
 -0.79841988D-04  0.16519531D-03 -0.41385792D-04 -0.70198136D-04 -0.79918097D-04
  0.16534123D-03 -0.41236954D-04 -0.69945679D-04 -0.79630683D-04  0.16490734D-03
 -0.41325734D-04 -0.70096267D-04 -0.79802122D-04  0.16512989D-03 -0.41372028D-04
 -0.70174789D-04 -0.79891517D-04  0.16529804D-03 -0.41243931D-04 -0.69957513D-04
 -0.79644155D-04  0.16492919D-03
MO    2     MO 0.0        OCC NO =    2.0000000  ORB. ENERGY =  -10.185256
 -0.23467391D+00 -0.43292754D+00 -0.69887928D+00 -0.90973316D+00 -0.77627696D+00
 -0.26802978D+00  0.86884598D-02  0.40045032D-02 -0.11229045D-01  0.10153418D-03
  0.77849968D-04  0.38852590D-04 -0.23095074D-03 -0.17707838D-03 -0.88374520D-04
  0.24782986D-08  0.19002021D-08  0.94833405D-09  0.84062157D-03 -0.44345188D-04
  0.15375825D-03 -0.10943608D-08  0.47352820D-02  0.47059904D-02  0.47622725D-02
 -0.41370217D-04 -0.14482922D-08 -0.11824245D-08 -0.28922848D+00 -0.53357007D+00
 -0.86134754D+00 -0.11212186D+01 -0.95673783D+00 -0.33033858D+00  0.10709019D-01
  0.49357769D-02 -0.13840434D-01 -0.13050356D-03 -0.10006185D-03 -0.49937876D-04
 -0.46888859D-04 -0.35951403D-04 -0.17942270D-04 -0.97644909D-09 -0.74867923D-09
 -0.37364341D-09  0.10427574D-02  0.79731075D-04  0.57714610D-04  0.49456246D-09
  0.58315123D-02  0.58018487D-02  0.58684979D-02 -0.22028931D-04 -0.89162559D-10
 -0.45048861D-08 -0.53928104D-01 -0.99486822D-01 -0.16060258D+00 -0.20905684D+00
 -0.17838858D+00 -0.61593289D-01  0.19963777D-02  0.92012866D-03 -0.25801368D-02
 -0.17490819D-03 -0.13410850D-03 -0.66929543D-04 -0.33946783D-03 -0.26028240D-03
 -0.12989916D-03  0.16986748D-08  0.13024361D-08  0.65000688D-09  0.19116211D-03
  0.10423660D-03  0.21149677D-03 -0.94231963D-09  0.11120395D-02  0.10581091D-02
  0.10945650D-02  0.41783641D-04  0.20125387D-08  0.30444571D-09  0.23484890D+00
  0.43325036D+00  0.69940042D+00  0.91041153D+00  0.77685581D+00  0.26822964D+00
 -0.86949071D-02 -0.40074748D-02  0.11237378D-01  0.10157822D-03  0.77883733D-04
  0.38869441D-04 -0.23103956D-03 -0.17714648D-03 -0.88408509D-04  0.93168730D-09
  0.71435873D-09  0.35651507D-09 -0.84146127D-03 -0.44289250D-04  0.15389922D-03
  0.32309480D-09 -0.47385844D-02 -0.47094280D-02 -0.47658182D-02  0.41134755D-04
 -0.34529331D-08 -0.16415821D-08  0.28935487D+00  0.53380323D+00  0.86172393D+00
  0.11217085D+01  0.95715591D+00  0.33048293D+00 -0.10713659D-01 -0.49379157D-02
  0.13846431D-01 -0.13062612D-03 -0.10015583D-03 -0.49984777D-04 -0.46870296D-04
 -0.35937170D-04 -0.17935167D-04  0.14554614D-08  0.11159555D-08  0.55694001D-09
 -0.10432713D-02  0.79841076D-04  0.57772041D-04 -0.12577041D-08 -0.58339504D-02
 -0.58043642D-02 -0.58710826D-02  0.21758338D-04 -0.68888727D-09  0.21817027D-08
  0.53850495D-01  0.99343649D-01  0.16037145D+00  0.20875598D+00  0.17813186D+00
  0.61504649D-01 -0.19934346D-02 -0.91877218D-03  0.25763331D-02 -0.17503375D-03
 -0.13420478D-03 -0.66977589D-04 -0.33937354D-03 -0.26021011D-03 -0.12986308D-03
  0.53225626D-09  0.40810034D-09  0.20367067D-09 -0.19030372D-03  0.10443125D-03
  0.21136694D-03  0.30216886D-09 -0.11107034D-02 -0.10569023D-02 -0.10931146D-02
 -0.42075118D-04  0.16466162D-08 -0.79015554D-11  0.40611533D-04  0.68884846D-04
  0.78422963D-04 -0.12887773D-03  0.50110678D-04  0.84997194D-04  0.96766301D-04
 -0.15817945D-03  0.93097250D-05  0.15791056D-04  0.17977559D-04 -0.29799268D-04
 -0.40641039D-04 -0.68934894D-04 -0.78479940D-04  0.12896625D-03 -0.50132745D-04
 -0.85034625D-04 -0.96808915D-04  0.15825221D-03 -0.93006782D-05 -0.15775710D-04
 -0.17960089D-04  0.29808116D-04
MO    3     MO 0.0        OCC NO =    2.0000000  ORB. ENERGY =  -10.185254
 -0.19856884D+00 -0.36632073D+00 -0.59135524D+00 -0.76976882D+00 -0.65684513D+00
 -0.22679284D+00  0.73526500D-02  0.33888296D-02 -0.95026321D-02 -0.18087412D-03
 -0.13868280D-03 -0.69212438D-04  0.23691675D-03  0.18165274D-03  0.90657446D-04
  0.33715318D-09  0.25850768D-09  0.12901345D-09  0.71930908D-03  0.12948490D-03
 -0.13525621D-03  0.17921501D-10  0.39649100D-02  0.40205435D-02  0.40286623D-02
  0.66949492D-05 -0.98461746D-09 -0.16278065D-08  0.10492191D+00  0.19356043D+00
  0.31246655D+00  0.40673860D+00  0.34707079D+00  0.11983520D+00 -0.38853488D-02
 -0.17907537D-02  0.50214603D-02 -0.36506650D-03 -0.27990984D-03 -0.13969463D-03
  0.61016719D-05  0.46783750D-05  0.23348370D-05 -0.11999581D-09 -0.92005173D-10
 -0.45917030D-10 -0.38265565D-03  0.22566785D-03 -0.15726288D-04 -0.46942058D-09
 -0.21122706D-02 -0.21060838D-02 -0.21283866D-02 -0.65371281D-04 -0.31292907D-08
 -0.90576780D-09  0.30219962D+00  0.55749929D+00  0.89997671D+00  0.11715023D+01
  0.99964501D+00  0.34515340D+00 -0.11188285D-01 -0.51566705D-02  0.14459842D-01
 -0.71330861D-04 -0.54691980D-04 -0.27295131D-04 -0.38816903D-04 -0.29762339D-04
 -0.14853493D-04 -0.62283248D-08 -0.47754844D-08 -0.23833014D-08 -0.10812344D-02
  0.67962471D-04  0.11013379D-04  0.31983241D-08 -0.60656037D-02 -0.60925266D-02
 -0.61327506D-02 -0.18745049D-04 -0.68990096D-08  0.42798378D-08  0.19842769D+00
  0.36606033D+00  0.59093488D+00  0.76922163D+00  0.65637821D+00  0.22663162D+00
 -0.73473414D-02 -0.33863829D-02  0.94957712D-02 -0.18064871D-03 -0.13850997D-03
 -0.69126183D-04  0.23689395D-03  0.18163525D-03  0.90648720D-04 -0.19260539D-09
 -0.14767760D-09 -0.73701472D-10 -0.71814826D-03  0.12920583D-03 -0.13529159D-03
 -0.47612595D-09 -0.39622495D-02 -0.40181491D-02 -0.40259167D-02 -0.65020995D-05
  0.10759907D-08  0.29591386D-08 -0.10465500D+00 -0.19306804D+00 -0.31167168D+00
 -0.40570392D+00 -0.34618789D+00 -0.11953036D+00  0.38754246D-02  0.17861796D-02
 -0.50086342D-02 -0.36498997D-03 -0.27985116D-03 -0.13966534D-03  0.59542126D-05
  0.45653126D-05  0.22784109D-05 -0.13378103D-08 -0.10257481D-08 -0.51192019D-09
  0.38102320D-03  0.22559886D-03 -0.15437056D-04  0.83300108D-09  0.21074085D-02
  0.21009113D-02  0.21230584D-02  0.65465338D-04 -0.29694926D-09 -0.52121434D-09
 -0.30219901D+00 -0.55749817D+00 -0.89997491D+00 -0.11714999D+01 -0.99964300D+00
 -0.34515271D+00  0.11188302D-01  0.51566784D-02 -0.14459864D-01 -0.71489617D-04
 -0.54813704D-04 -0.27355880D-04 -0.38971102D-04 -0.29880569D-04 -0.14912498D-04
 -0.12640659D-08 -0.96920558D-09 -0.48370151D-09  0.10814262D-02  0.68106573D-04
  0.11138742D-04  0.25165362D-10  0.60656277D-02  0.60923159D-02  0.61326917D-02
  0.18800026D-04  0.27581579D-08 -0.21475295D-08  0.34432619D-04  0.58404239D-04
  0.66491162D-04 -0.10830239D-03 -0.18215579D-04 -0.30897069D-04 -0.35175221D-04
  0.56977974D-04 -0.52280990D-04 -0.88678453D-04 -0.10095728D-03  0.16609123D-03
 -0.34412609D-04 -0.58370298D-04 -0.66452521D-04  0.10827203D-03  0.18173152D-04
  0.30825106D-04  0.35093294D-04 -0.56869565D-04  0.52279306D-04  0.88675598D-04
  0.10095403D-03 -0.16607307D-03
MO    4     MO 0.0        OCC NO =    2.0000000  ORB. ENERGY =  -10.184680
 -0.23492555D+00 -0.43339177D+00 -0.69962870D+00 -0.91070868D+00 -0.77710937D+00
 -0.26831719D+00  0.88386526D-02  0.40737269D-02 -0.11423155D-01 -0.32146218D-03
 -0.24647681D-03 -0.12300920D-03  0.35165750D-04  0.26962867D-04  0.13456360D-04
  0.16707117D-08  0.12809958D-08  0.63930666D-09  0.16597252D-02  0.32097887D-03
  0.25981053D-04 -0.68020440D-09  0.43729718D-02  0.44163569D-02  0.46538331D-02
  0.24396555D-03 -0.33567223D-08 -0.27207860D-08  0.28914504D+00  0.53341613D+00
  0.86109903D+00  0.11208951D+01  0.95646180D+00  0.33024328D+00 -0.10878987D-01
 -0.50141153D-02  0.14060103D-01 -0.11233844D-03 -0.86133993D-04 -0.42986899D-04
  0.31219507D-03  0.23937138D-03  0.11946310D-03  0.28432513D-08  0.21800247D-08
  0.10879851D-08 -0.20447340D-02  0.86124039D-04 -0.35161135D-03 -0.63127602D-09
 -0.52840237D-02 -0.55323471D-02 -0.57274414D-02 -0.64358964D-04  0.67676396D-10
  0.64506478D-08 -0.54934026D-01 -0.10134255D+00 -0.16359830D+00 -0.21295638D+00
 -0.18171606D+00 -0.62742190D-01  0.20666266D-02  0.95250632D-03 -0.26709272D-02
  0.19630578D-03  0.15051482D-03  0.75117445D-04  0.23782608D-03  0.18234995D-03
  0.91005407D-04  0.17795367D-08  0.13644359D-08  0.68094914D-09  0.38730395D-03
 -0.16487676D-03 -0.16388631D-03 -0.86428692D-09  0.94555577D-03  0.11105629D-02
  0.10884260D-02 -0.16278981D-03  0.71309212D-09 -0.50479630D-08 -0.23500466D+00
 -0.43353771D+00 -0.69986428D+00 -0.91101534D+00 -0.77737104D+00 -0.26840754D+00
  0.88415046D-02  0.40750414D-02 -0.11426841D-01  0.32163418D-03  0.24660869D-03
  0.12307502D-03 -0.35521770D-04 -0.27235840D-04 -0.13592593D-04  0.10091719D-08
  0.77376898D-09  0.38616495D-09  0.16590427D-02 -0.32073216D-03 -0.25613649D-04
 -0.38877244D-09  0.43746180D-02  0.44183021D-02  0.46555742D-02  0.24396737D-03
  0.41374156D-09  0.24264266D-08  0.28915253D+00  0.53342997D+00  0.86112136D+00
  0.11209241D+01  0.95648661D+00  0.33025184D+00 -0.10879163D-01 -0.50141965D-02
  0.14060330D-01  0.11282023D-03  0.86503394D-04  0.43171256D-04 -0.31210395D-03
 -0.23930151D-03 -0.11942823D-03  0.37530097D-08  0.28775698D-08  0.14361090D-08
 -0.20437492D-02 -0.86338162D-04  0.35117800D-03 -0.22052110D-08 -0.52844151D-02
 -0.55326509D-02 -0.57277224D-02 -0.64690055D-04  0.99199147D-09  0.13051503D-08
 -0.54623722D-01 -0.10077010D+00 -0.16267419D+00 -0.21175346D+00 -0.18068961D+00
 -0.62387780D-01  0.20549259D-02  0.94711346D-03 -0.26558050D-02 -0.19604641D-03
 -0.15031595D-03 -0.75018195D-04 -0.23786541D-03 -0.18238011D-03 -0.91020456D-04
  0.14598184D-08  0.11192962D-08  0.55860724D-09  0.38498062D-03  0.16438643D-03
  0.16410428D-03 -0.32942947D-09  0.93950455D-03  0.11044555D-02  0.10822257D-02
 -0.16276331D-03  0.17358698D-08  0.12568944D-08  0.36199859D-04  0.61401812D-04
  0.69903793D-04 -0.91217375D-04 -0.44535570D-04 -0.75540756D-04 -0.86000481D-04
  0.11211712D-03  0.84885955D-05  0.14398265D-04  0.16391915D-04 -0.21315970D-04
  0.36206814D-04  0.61413610D-04  0.69917224D-04 -0.91350683D-04 -0.44528323D-04
 -0.75528463D-04 -0.85986486D-04  0.11221671D-03  0.84191701D-05  0.14280506D-04
  0.16257851D-04 -0.21264914D-04
MO    5     MO 0.0        OCC NO =    2.0000000  ORB. ENERGY =  -10.184678
 -0.19831055D+00 -0.36584424D+00 -0.59058603D+00 -0.76876754D+00 -0.65599073D+00
 -0.22649784D+00  0.74616664D-02  0.34390752D-02 -0.96435259D-02 -0.61458798D-04
 -0.47122709D-04 -0.23517534D-04 -0.31348026D-03 -0.24035678D-03 -0.11995488D-03
  0.80231183D-09  0.61516182D-09  0.30700886D-09  0.14031580D-02  0.11648012D-03
  0.27435155D-03 -0.27414366D-09  0.38256172D-02  0.35924865D-02  0.39280698D-02
  0.69908763D-04  0.17033409D-09  0.68332347D-09 -0.10374617D+00 -0.19139143D+00
 -0.30896511D+00 -0.40218077D+00 -0.34318158D+00 -0.11849235D+00  0.39037085D-02
  0.17992157D-02 -0.50451885D-02 -0.28615186D-03 -0.21940310D-03 -0.10949752D-03
 -0.12145678D-03 -0.93125358D-04 -0.46476080D-04 -0.28624952D-08 -0.21947798D-08
 -0.10953489D-08  0.73434772D-03  0.20934568D-03  0.13290798D-03  0.58933718D-09
  0.19022897D-02  0.19780877D-02  0.20548339D-02 -0.22179800D-03 -0.50182264D-08
 -0.31943871D-08  0.30289794D+00  0.55878756D+00  0.90205638D+00  0.11742094D+01
  0.10019550D+01  0.34595098D+00 -0.11395824D-01 -0.52523247D-02  0.14728067D-01
 -0.26361854D-03 -0.20212598D-03 -0.10087503D-03  0.20458214D-03  0.15686061D-03
  0.78284439D-04 -0.77891607D-08 -0.59722344D-08 -0.29805635D-08 -0.21386907D-02
  0.30595971D-03 -0.21114076D-03  0.40446549D-08 -0.57533673D-02 -0.55796866D-02
 -0.60005988D-02  0.19132301D-03 -0.81015852D-08  0.37873757D-08 -0.19815129D+00
 -0.36555044D+00 -0.59011175D+00 -0.76815016D+00 -0.65546393D+00 -0.22631594D+00
  0.74556337D-02  0.34362948D-02 -0.96357292D-02  0.61463526D-04  0.47126334D-04
  0.23519343D-04  0.31317297D-03  0.24012117D-03  0.11983729D-03 -0.34257934D-08
 -0.26266811D-08 -0.13108980D-08  0.14018737D-02 -0.11627773D-03 -0.27409422D-03
  0.51992356D-09  0.38224077D-02  0.35894605D-02  0.39248878D-02  0.70020346D-04
  0.55018883D-09  0.44119117D-08 -0.10364204D+00 -0.19119933D+00 -0.30865501D+00
 -0.40177711D+00 -0.34283714D+00 -0.11837342D+00  0.38998495D-02  0.17974371D-02
 -0.50402011D-02  0.28601668D-03  0.21929945D-03  0.10944579D-03  0.12141391D-03
  0.93092482D-04  0.46459673D-04 -0.14532784D-08 -0.11142817D-08 -0.55610465D-09
  0.73443322D-03 -0.20928217D-03 -0.13310221D-03  0.89740675D-09  0.19000047D-02
  0.19759257D-02  0.20526314D-02 -0.22169423D-03  0.25960132D-08 -0.22620997D-08
  0.30296806D+00  0.55891691D+00  0.90226519D+00  0.11744812D+01  0.10021869D+01
  0.34603106D+00 -0.11398508D-01 -0.52535621D-02  0.14731537D-01  0.26350717D-03
  0.20204059D-03  0.10083241D-03 -0.20497787D-03 -0.15716403D-03 -0.78435865D-04
  0.56374480D-09  0.43224375D-09  0.21571993D-09 -0.21395687D-02 -0.30611475D-03
  0.21141961D-03  0.10532369D-09 -0.57548213D-02 -0.55808526D-02 -0.60019587D-02
  0.19117012D-03 -0.32964988D-08  0.21455980D-09  0.30546528D-04  0.51812693D-04
  0.58986920D-04 -0.76836145D-04  0.15966486D-04  0.27082183D-04  0.30832108D-04
 -0.40192309D-04 -0.46667848D-04 -0.79157503D-04 -0.90118019D-04  0.11773369D-03
  0.30508888D-04  0.51748848D-04  0.58914234D-04 -0.76820310D-04  0.15949339D-04
  0.27053097D-04  0.30798995D-04 -0.40094052D-04 -0.46686782D-04 -0.79189618D-04
 -0.90154581D-04  0.11771122D-03
MO    6     MO 0.0        OCC NO =    2.0000000  ORB. ENERGY =  -10.184402
  0.21735986D+00  0.40098650D+00  0.64731654D+00  0.84261379D+00  0.71900388D+00
  0.24825476D+00 -0.84288454D-02 -0.38848471D-02  0.10893517D-01  0.30212918D-03
  0.23165349D-03  0.11561133D-03  0.18679683D-03  0.14322396D-03  0.71478794D-04
 -0.36536795D-09 -0.28014097D-09 -0.13980998D-09 -0.38813258D-02 -0.11306918D-02
 -0.69592943D-03 -0.78198295D-09 -0.38756697D-02 -0.37740491D-02 -0.40610106D-02
 -0.20016541D-03  0.30227896D-08  0.68314211D-08 -0.21702096D+00 -0.40036129D+00
 -0.64630726D+00 -0.84130002D+00 -0.71788283D+00 -0.24786769D+00  0.84162243D-02
  0.38790301D-02 -0.10877205D-01  0.91343490D-05  0.70036394D-05  0.34953069D-05
 -0.35508538D-03 -0.27225695D-03 -0.13587530D-03 -0.62593774D-08 -0.47992936D-08
 -0.23951839D-08  0.38800905D-02 -0.36078358D-04  0.13269868D-02  0.72758552D-08
  0.37058873D-02  0.39300529D-02  0.40540876D-02 -0.12557501D-04 -0.99976912D-09
 -0.91753778D-09  0.21809575D+00  0.40234406D+00  0.64950807D+00  0.84546652D+00
  0.72143812D+00  0.24909524D+00 -0.84561815D-02 -0.38974463D-02  0.10928846D-01
 -0.31251472D-03 -0.23961646D-03 -0.11958541D-03  0.16936002D-03  0.12985452D-03
  0.64806509D-04  0.97965935D-11  0.75114065D-11  0.37487183D-11 -0.38844188D-02
  0.11678209D-02 -0.63216193D-03  0.28842768D-08 -0.39009470D-02 -0.37781428D-02
 -0.40759037D-02  0.18794063D-03 -0.15483123D-07  0.10692129D-07 -0.21747881D+00
 -0.40120595D+00 -0.64767080D+00 -0.84307493D+00 -0.71939737D+00 -0.24839062D+00
  0.84333212D-02  0.38869101D-02 -0.10899302D-01  0.30235746D-03  0.23182852D-03
  0.11569868D-03  0.18667170D-03  0.14312802D-03  0.71430912D-04 -0.37822795D-08
 -0.29000120D-08 -0.14473092D-08  0.38821647D-02 -0.11309798D-02 -0.69573871D-03
  0.30421073D-08  0.38778542D-02  0.37763153D-02  0.40633676D-02  0.20032005D-03
 -0.12871716D-08  0.18075615D-08  0.21710054D+00  0.40050811D+00  0.64654427D+00
  0.84160854D+00  0.71814609D+00  0.24795859D+00 -0.84192195D-02 -0.38804106D-02
  0.10881076D-01  0.94302358D-05  0.72305067D-05  0.36085296D-05 -0.35516434D-03
 -0.27231749D-03 -0.13590551D-03 -0.25014257D-09 -0.19179345D-09 -0.95718376D-10
 -0.38806563D-02 -0.36442586D-04  0.13270747D-02 -0.45596088D-08 -0.37073374D-02
 -0.39315808D-02 -0.40556649D-02  0.12369822D-04 -0.23249009D-08  0.46478704D-08
 -0.21805626D+00 -0.40227122D+00 -0.64939048D+00 -0.84531346D+00 -0.72130750D+00
 -0.24905015D+00  0.84546971D-02  0.38967622D-02 -0.10926928D-01 -0.31243654D-03
 -0.23955652D-03 -0.11955549D-03  0.16941781D-03  0.12989883D-03  0.64828623D-04
 -0.88235627D-09 -0.67653483D-09 -0.33763829D-09  0.38841449D-02  0.11676795D-02
 -0.63232560D-03 -0.12533021D-08  0.39002155D-02  0.37773970D-02  0.40751211D-02
 -0.18789127D-03  0.42664666D-08 -0.95187819D-09 -0.67836719D-04 -0.11506391D-03
 -0.13099620D-03 -0.17704899D-03  0.67762362D-04  0.11493779D-03  0.13085261D-03
  0.17714392D-03 -0.67959557D-04 -0.11527227D-03 -0.13123341D-03 -0.17665894D-03
  0.67855118D-04  0.11509512D-03  0.13103173D-03  0.17700310D-03 -0.67774595D-04
 -0.11495854D-03 -0.13087624D-03 -0.17711300D-03  0.67953472D-04  0.11526195D-03
  0.13122166D-03  0.17667463D-03
MO    7     MO 0.0        OCC NO =    2.0000000  ORB. ENERGY =   -0.849080
 -0.50570994D-01 -0.93293609D-01 -0.15060481D+00 -0.19604272D+00 -0.16728361D+00
 -0.57759009D-01 -0.71769679D-01 -0.33078579D-01  0.92755789D-01  0.67277073D-01
  0.51583792D-01  0.25743928D-01  0.41385743D-01  0.31731963D-01  0.15836473D-01
 -0.19183217D-06 -0.14708474D-06 -0.73405595D-07  0.21249693D-01  0.93391670D-03
  0.57476283D-03 -0.71783770D-08  0.34087628D-02  0.33622514D-02 -0.11968332D-01
  0.10318492D-03  0.41447273D-07  0.31082210D-07 -0.50570463D-01 -0.93292629D-01
 -0.15060323D+00 -0.19604066D+00 -0.16728185D+00 -0.57758402D-01 -0.71768708D-01
 -0.33078132D-01  0.92754534D-01 -0.21560313D-02 -0.16531081D-02 -0.82501678D-03
  0.78948253D-01  0.60532513D-01  0.30209966D-01  0.78514885D-07  0.60200234D-07
  0.30044136D-07  0.21250447D-01 -0.30641957D-04  0.10971797D-02 -0.18916050D-08
  0.33305543D-02  0.34402900D-02 -0.11969110D-01 -0.43567144D-05  0.45897557D-07
  0.18294614D-06 -0.50572765D-01 -0.93296876D-01 -0.15061009D+00 -0.19604958D+00
 -0.16728946D+00 -0.57761031D-01 -0.71774057D-01 -0.33080597D-01  0.92761447D-01
 -0.69466539D-01 -0.53262536D-01 -0.26581739D-01  0.37592044D-01  0.28823195D-01
  0.14384794D-01 -0.95222887D-06 -0.73010870D-06 -0.36437541D-06  0.21246101D-01
 -0.96141713D-03  0.52007581D-03 -0.28579509D-07  0.34138401D-02  0.33521311D-02
 -0.11968508D-01 -0.91147569D-04 -0.47849516D-07  0.33045386D-07 -0.50570997D-01
 -0.93293615D-01 -0.15060482D+00 -0.19604273D+00 -0.16728362D+00 -0.57759012D-01
 -0.71769676D-01 -0.33078578D-01  0.92755786D-01 -0.67289025D-01 -0.51592957D-01
 -0.25748501D-01 -0.41366258D-01 -0.31717023D-01 -0.15829017D-01 -0.17767040D-07
 -0.13622640D-07 -0.67986520D-08  0.21249679D-01 -0.93374588D-03 -0.57502987D-03
 -0.77260117D-10  0.34097187D-02  0.33613014D-02 -0.11968333D-01  0.10222630D-03
 -0.41049303D-08 -0.11400261D-06 -0.50570526D-01 -0.93292746D-01 -0.15060342D+00
 -0.19604090D+00 -0.16728206D+00 -0.57758474D-01 -0.71768789D-01 -0.33078169D-01
  0.92754639D-01  0.21787610D-02  0.16705357D-02  0.83371440D-03 -0.78947681D-01
 -0.60532074D-01 -0.30209748D-01  0.47842997D-06  0.36682975D-06  0.18307376D-06
  0.21250480D-01  0.30328589D-04 -0.10971969D-02  0.11154369D-07  0.33306105D-02
  0.34402306D-02 -0.11969127D-01 -0.63777513D-05  0.32260188D-08 -0.61419589D-07
 -0.50572819D-01 -0.93296976D-01 -0.15061025D+00 -0.19604979D+00 -0.16728964D+00
 -0.57761093D-01 -0.71774137D-01 -0.33080634D-01  0.92761552D-01  0.69455822D-01
  0.53254319D-01  0.26577638D-01 -0.37612052D-01 -0.28838536D-01 -0.14392450D-01
  0.20084402D-07  0.15399445D-07  0.76854025D-08  0.21246113D-01  0.96156461D-03
 -0.51979407D-03  0.65140028D-08  0.34129706D-02  0.33529913D-02 -0.11968520D-01
 -0.92279912D-04 -0.92757029D-07  0.12605254D-09  0.76412556D-02  0.12961016D-01
  0.14755658D-01  0.72450100D-03  0.76412145D-02  0.12960946D-01  0.14755579D-01
  0.72504685D-03  0.76415478D-02  0.12961511D-01  0.14756223D-01  0.72285543D-03
  0.76412600D-02  0.12961023D-01  0.14755667D-01  0.72450092D-03  0.76412262D-02
  0.12960966D-01  0.14755602D-01  0.72505078D-03  0.76415537D-02  0.12961521D-01
  0.14756234D-01  0.72285305D-03
MO    8     MO 0.0        OCC NO =    2.0000000  ORB. ENERGY =   -0.741430
 -0.56000623D-01 -0.10331021D+00 -0.16677472D+00 -0.21709113D+00 -0.18524425D+00
 -0.63960389D-01 -0.82204230D-01 -0.37887855D-01  0.10624150D+00 -0.28389055D-01
 -0.21766926D-01 -0.10863222D-01  0.88708440D-01  0.68016005D-01  0.33944753D-01
 -0.32219932D-06 -0.24704200D-06 -0.12329127D-06  0.28680073D-01 -0.19460319D-02
  0.81027504D-03 -0.18087942D-07 -0.41871684D-02  0.75031934D-02 -0.11302284D-01
  0.45990102D-02  0.93144500D-07  0.38253268D-07  0.87921728D-02  0.16219842D-01
  0.26183854D-01  0.34083598D-01  0.29083596D-01  0.10041867D-01  0.12907759D-01
  0.59491743D-02 -0.16682106D-01 -0.14828803D+00 -0.11369786D+00 -0.56743198D-01
 -0.75852779D-02 -0.58159100D-02 -0.29025467D-02 -0.14828954D-06 -0.11369901D-06
 -0.56743776D-07 -0.45014660D-02 -0.28110451D-02  0.11846315D-03 -0.50635907D-08
  0.21389384D-03 -0.73246927D-03  0.17734453D-02 -0.20502354D-01 -0.38836824D-07
 -0.68509234D-07  0.64780782D-01  0.11950789D+00  0.19292279D+00  0.25112816D+00
  0.21428811D+00  0.73988535D-01  0.95092930D-01  0.43828244D-01 -0.12289897D+00
 -0.49599039D-02 -0.38029397D-02 -0.18979334D-02 -0.63266599D-01 -0.48508815D-01
 -0.24209299D-01  0.14639509D-05  0.11224647D-05  0.56018855D-06 -0.33177647D-01
 -0.17767721D-02 -0.28598111D-03  0.57298752D-07  0.18085068D-02 -0.56460749D-02
  0.13074282D-01  0.32455208D-02  0.29552431D-06 -0.82282786D-07  0.55993579D-01
  0.10329722D+00  0.16675374D+00  0.21706383D+00  0.18522096D+00  0.63952345D-01
  0.82193242D-01  0.37882790D-01 -0.10622730D+00 -0.28371122D-01 -0.21753177D-01
 -0.10856360D-01  0.88665984D-01  0.67983452D-01  0.33928507D-01 -0.95156456D-07
 -0.72959935D-07 -0.36412121D-07 -0.28677398D-01 -0.19447637D-02  0.81130400D-03
 -0.12809376D-08  0.41828446D-02 -0.75019439D-02  0.11301201D-01 -0.45962313D-02
  0.55621365D-07  0.14716096D-06 -0.87805299D-02 -0.16198363D-01 -0.26149181D-01