nmr                                                                     
SP        RB3LYP                                                      CC-pVTZ             
Number of atoms                            I               12
Info1-9                                    I   N=           9
          11           9           0           0           0         111
           1          18        -502
Charge                                     I                0
Multiplicity                               I                1
Number of electrons                        I               42
Number of alpha electrons                  I               21
Number of beta electrons                   I               21
Number of basis functions                  I              264
Number of independent functions            I              264
Number of point charges in /Mol/           I                0
Number of translation vectors              I                0
Atomic numbers                             I   N=          12
           6           6           6           6           6           6
           1           1           1           1           1           1
Nuclear charges                            R   N=          12
  6.00000000E+00  6.00000000E+00  6.00000000E+00  6.00000000E+00  6.00000000E+00
  6.00000000E+00  1.00000000E+00  1.00000000E+00  1.00000000E+00  1.00000000E+00
  1.00000000E+00  1.00000000E+00
Current cartesian coordinates              R   N=          36
  2.23916810E+00 -1.37621982E+00 -1.88061413E-06 -7.24851793E-02 -2.62706145E+00
 -4.21423375E-07 -2.31149125E+00 -1.25092820E+00 -1.13898010E-05 -2.23910854E+00
  1.37631646E+00 -1.06763714E-06  7.23728981E-02  2.62706415E+00  6.27505941E-06
  2.31154503E+00  1.25082937E+00 -1.19580164E-07  3.98088205E+00 -2.44732671E+00
  1.03875913E-05 -1.28796545E-01 -4.67101875E+00  2.33682953E-05 -4.10987329E+00
 -2.22388721E+00  2.37075996E-05 -3.98096407E+00  2.44719200E+00  7.71467577E-06
  1.28945339E-01  4.67101400E+00  6.98702372E-07  4.10980006E+00  2.22402362E+00
 -1.42528860E-05
Force Field                                I                0
Int Atom Types                             I   N=          12
           0           0           0           0           0           0
           0           0           0           0           0           0
MM charges                                 R   N=          12
  0.00000000E+00  0.00000000E+00  0.00000000E+00  0.00000000E+00  0.00000000E+00
  0.00000000E+00  0.00000000E+00  0.00000000E+00  0.00000000E+00  0.00000000E+00
  0.00000000E+00  0.00000000E+00
Integer atomic weights                     I   N=          12
          12          12          12          12          12          12
           1           1           1           1           1           1
Real atomic weights                        R   N=          12
  1.20000000E+01  1.20000000E+01  1.20000000E+01  1.20000000E+01  1.20000000E+01
  1.20000000E+01  1.00782504E+00  1.00782504E+00  1.00782504E+00  1.00782504E+00
  1.00782504E+00  1.00782504E+00
Atom fragment info                         I   N=          12
           0           0           0           0           0           0
           0           0           0           0           0           0
Atom residue num                           I   N=          12
           0           0           0           0           0           0
           0           0           0           0           0           0
Nuclear spins                              I   N=          12
           0           0           0           0           0           0
           1           1           1           1           1           1
Nuclear ZEff                               R   N=          12
 -3.60000000E+00 -3.60000000E+00 -3.60000000E+00 -3.60000000E+00 -3.60000000E+00
 -3.60000000E+00 -1.00000000E+00 -1.00000000E+00 -1.00000000E+00 -1.00000000E+00
 -1.00000000E+00 -1.00000000E+00
Nuclear QMom                               R   N=          12
  0.00000000E+00  0.00000000E+00  0.00000000E+00  0.00000000E+00  0.00000000E+00
  0.00000000E+00  0.00000000E+00  0.00000000E+00  0.00000000E+00  0.00000000E+00
  0.00000000E+00  0.00000000E+00
Nuclear GFac                               R   N=          12
  0.00000000E+00  0.00000000E+00  0.00000000E+00  0.00000000E+00  0.00000000E+00
  0.00000000E+00  2.79284600E+00  2.79284600E+00  2.79284600E+00  2.79284600E+00
  2.79284600E+00  2.79284600E+00
MicOpt                                     I   N=          12
          -1          -1          -1          -1          -1          -1
          -1          -1          -1          -1          -1          -1
Number of contracted shells                I               96
Number of primitive shells                 I              204
Pure/Cartesian d shells                    I                0
Pure/Cartesian f shells                    I                0
Highest angular momentum                   I                3
Largest degree of contraction              I                8
Shell types                                I   N=          96
           0           0           0           0           1           1
           1          -2          -2          -3           0           0
           0           0           1           1           1          -2
          -2          -3           0           0           0           0
           1           1           1          -2          -2          -3
           0           0           0           0           1           1
           1          -2          -2          -3           0           0
           0           0           1           1           1          -2
          -2          -3           0           0           0           0
           1           1           1          -2          -2          -3
           0           0           0           1           1          -2
           0           0           0           1           1          -2
           0           0           0           1           1          -2
           0           0           0           1           1          -2
           0           0           0           1           1          -2
           0           0           0           1           1          -2
Number of primitives per shell             I   N=          96
           8           8           1           1           3           1
           1           1           1           1           8           8
           1           1           3           1           1           1
           1           1           8           8           1           1
           3           1           1           1           1           1
           8           8           1           1           3           1
           1           1           1           1           8           8
           1           1           3           1           1           1
           1           1           8           8           1           1
           3           1           1           1           1           1
           3           1           1           1           1           1
           3           1           1           1           1           1
           3           1           1           1           1           1
           3           1           1           1           1           1
           3           1           1           1           1           1
           3           1           1           1           1           1
Shell to atom map                          I   N=          96
           1           1           1           1           1           1
           1           1           1           1           2           2
           2           2           2           2           2           2
           2           2           3           3           3           3
           3           3           3           3           3           3
           4           4           4           4           4           4
           4           4           4           4           5           5
           5           5           5           5           5           5
           5           5           6           6           6           6
           6           6           6           6           6           6
           7           7           7           7           7           7
           8           8           8           8           8           8
           9           9           9           9           9           9
          10          10          10          10          10          10
          11          11          11          11          11          11
          12          12          12          12          12          12
Primitive exponents                        R   N=         204
  8.23600000E+03  1.23500000E+03  2.80800000E+02  7.92700000E+01  2.55900000E+01
  8.99700000E+00  3.31900000E+00  3.64300000E-01  8.23600000E+03  1.23500000E+03
  2.80800000E+02  7.92700000E+01  2.55900000E+01  8.99700000E+00  3.31900000E+00
  3.64300000E-01  9.05900000E-01  1.28500000E-01  1.87100000E+01  4.13300000E+00
  1.20000000E+00  3.82700000E-01  1.20900000E-01  1.09700000E+00  3.18000000E-01
  7.61000000E-01  8.23600000E+03  1.23500000E+03  2.80800000E+02  7.92700000E+01
  2.55900000E+01  8.99700000E+00  3.31900000E+00  3.64300000E-01  8.23600000E+03
  1.23500000E+03  2.80800000E+02  7.92700000E+01  2.55900000E+01  8.99700000E+00
  3.31900000E+00  3.64300000E-01  9.05900000E-01  1.28500000E-01  1.87100000E+01
  4.13300000E+00  1.20000000E+00  3.82700000E-01  1.20900000E-01  1.09700000E+00
  3.18000000E-01  7.61000000E-01  8.23600000E+03  1.23500000E+03  2.80800000E+02
  7.92700000E+01  2.55900000E+01  8.99700000E+00  3.31900000E+00  3.64300000E-01
  8.23600000E+03  1.23500000E+03  2.80800000E+02  7.92700000E+01  2.55900000E+01
  8.99700000E+00  3.31900000E+00  3.64300000E-01  9.05900000E-01  1.28500000E-01
  1.87100000E+01  4.13300000E+00  1.20000000E+00  3.82700000E-01  1.20900000E-01
  1.09700000E+00  3.18000000E-01  7.61000000E-01  8.23600000E+03  1.23500000E+03
  2.80800000E+02  7.92700000E+01  2.55900000E+01  8.99700000E+00  3.31900000E+00
  3.64300000E-01  8.23600000E+03  1.23500000E+03  2.80800000E+02  7.92700000E+01
  2.55900000E+01  8.99700000E+00  3.31900000E+00  3.64300000E-01  9.05900000E-01
  1.28500000E-01  1.87100000E+01  4.13300000E+00  1.20000000E+00  3.82700000E-01
  1.20900000E-01  1.09700000E+00  3.18000000E-01  7.61000000E-01  8.23600000E+03
  1.23500000E+03  2.80800000E+02  7.92700000E+01  2.55900000E+01  8.99700000E+00
  3.31900000E+00  3.64300000E-01  8.23600000E+03  1.23500000E+03  2.80800000E+02
  7.92700000E+01  2.55900000E+01  8.99700000E+00  3.31900000E+00  3.64300000E-01
  9.05900000E-01  1.28500000E-01  1.87100000E+01  4.13300000E+00  1.20000000E+00
  3.82700000E-01  1.20900000E-01  1.09700000E+00  3.18000000E-01  7.61000000E-01
  8.23600000E+03  1.23500000E+03  2.80800000E+02  7.92700000E+01  2.55900000E+01
  8.99700000E+00  3.31900000E+00  3.64300000E-01  8.23600000E+03  1.23500000E+03
  2.80800000E+02  7.92700000E+01  2.55900000E+01  8.99700000E+00  3.31900000E+00
  3.64300000E-01  9.05900000E-01  1.28500000E-01  1.87100000E+01  4.13300000E+00
  1.20000000E+00  3.82700000E-01  1.20900000E-01  1.09700000E+00  3.18000000E-01
  7.61000000E-01  3.38700000E+01  5.09500000E+00  1.15900000E+00  3.25800000E-01
  1.02700000E-01  1.40700000E+00  3.88000000E-01  1.05700000E+00  3.38700000E+01
  5.09500000E+00  1.15900000E+00  3.25800000E-01  1.02700000E-01  1.40700000E+00
  3.88000000E-01  1.05700000E+00  3.38700000E+01  5.09500000E+00  1.15900000E+00
  3.25800000E-01  1.02700000E-01  1.40700000E+00  3.88000000E-01  1.05700000E+00
  3.38700000E+01  5.09500000E+00  1.15900000E+00  3.25800000E-01  1.02700000E-01
  1.40700000E+00  3.88000000E-01  1.05700000E+00  3.38700000E+01  5.09500000E+00
  1.15900000E+00  3.25800000E-01  1.02700000E-01  1.40700000E+00  3.88000000E-01
  1.05700000E+00  3.38700000E+01  5.09500000E+00  1.15900000E+00  3.25800000E-01
  1.02700000E-01  1.40700000E+00  3.88000000E-01  1.05700000E+00
Contraction coefficients                   R   N=         204
  5.42430189E-04  4.19642790E-03  2.15409141E-02  8.36149496E-02  2.39871619E-01
  4.43751820E-01  3.53579696E-01 -9.17636608E-03 -1.96392234E-04 -1.52595027E-03
 -7.89044903E-03 -3.15148705E-02 -9.69100083E-02 -2.20541526E-01 -2.96069113E-01
  1.04050343E+00  1.00000000E+00  1.00000000E+00  3.94263872E-02  2.44088985E-01
  8.15492009E-01  1.00000000E+00  1.00000000E+00  1.00000000E+00  1.00000000E+00
  1.00000000E+00  5.42430189E-04  4.19642790E-03  2.15409141E-02  8.36149496E-02
  2.39871619E-01  4.43751820E-01  3.53579696E-01 -9.17636608E-03 -1.96392234E-04
 -1.52595027E-03 -7.89044903E-03 -3.15148705E-02 -9.69100083E-02 -2.20541526E-01
 -2.96069113E-01  1.04050343E+00  1.00000000E+00  1.00000000E+00  3.94263872E-02
  2.44088985E-01  8.15492009E-01  1.00000000E+00  1.00000000E+00  1.00000000E+00
  1.00000000E+00  1.00000000E+00  5.42430189E-04  4.19642790E-03  2.15409141E-02
  8.36149496E-02  2.39871619E-01  4.43751820E-01  3.53579696E-01 -9.17636608E-03
 -1.96392234E-04 -1.52595027E-03 -7.89044903E-03 -3.15148705E-02 -9.69100083E-02
 -2.20541526E-01 -2.96069113E-01  1.04050343E+00  1.00000000E+00  1.00000000E+00
  3.94263872E-02  2.44088985E-01  8.15492009E-01  1.00000000E+00  1.00000000E+00
  1.00000000E+00  1.00000000E+00  1.00000000E+00  5.42430189E-04  4.19642790E-03
  2.15409141E-02  8.36149496E-02  2.39871619E-01  4.43751820E-01  3.53579696E-01
 -9.17636608E-03 -1.96392234E-04 -1.52595027E-03 -7.89044903E-03 -3.15148705E-02
 -9.69100083E-02 -2.20541526E-01 -2.96069113E-01  1.04050343E+00  1.00000000E+00
  1.00000000E+00  3.94263872E-02  2.44088985E-01  8.15492009E-01  1.00000000E+00
  1.00000000E+00  1.00000000E+00  1.00000000E+00  1.00000000E+00  5.42430189E-04
  4.19642790E-03  2.15409141E-02  8.36149496E-02  2.39871619E-01  4.43751820E-01
  3.53579696E-01 -9.17636608E-03 -1.96392234E-04 -1.52595027E-03 -7.89044903E-03
 -3.15148705E-02 -9.69100083E-02 -2.20541526E-01 -2.96069113E-01  1.04050343E+00
  1.00000000E+00  1.00000000E+00  3.94263872E-02  2.44088985E-01  8.15492009E-01
  1.00000000E+00  1.00000000E+00  1.00000000E+00  1.00000000E+00  1.00000000E+00
  5.42430189E-04  4.19642790E-03  2.15409141E-02  8.36149496E-02  2.39871619E-01
  4.43751820E-01  3.53579696E-01 -9.17636608E-03 -1.96392234E-04 -1.52595027E-03
 -7.89044903E-03 -3.15148705E-02 -9.69100083E-02 -2.20541526E-01 -2.96069113E-01
  1.04050343E+00  1.00000000E+00  1.00000000E+00  3.94263872E-02  2.44088985E-01
  8.15492009E-01  1.00000000E+00  1.00000000E+00  1.00000000E+00  1.00000000E+00
  1.00000000E+00  2.54948632E-02  1.90362766E-01  8.52162022E-01  1.00000000E+00
  1.00000000E+00  1.00000000E+00  1.00000000E+00  1.00000000E+00  2.54948632E-02
  1.90362766E-01  8.52162022E-01  1.00000000E+00  1.00000000E+00  1.00000000E+00
  1.00000000E+00  1.00000000E+00  2.54948632E-02  1.90362766E-01  8.52162022E-01
  1.00000000E+00  1.00000000E+00  1.00000000E+00  1.00000000E+00  1.00000000E+00
  2.54948632E-02  1.90362766E-01  8.52162022E-01  1.00000000E+00  1.00000000E+00
  1.00000000E+00  1.00000000E+00  1.00000000E+00  2.54948632E-02  1.90362766E-01
  8.52162022E-01  1.00000000E+00  1.00000000E+00  1.00000000E+00  1.00000000E+00
  1.00000000E+00  2.54948632E-02  1.90362766E-01  8.52162022E-01  1.00000000E+00
  1.00000000E+00  1.00000000E+00  1.00000000E+00  1.00000000E+00
Coordinates of each shell                  R   N=         288
  2.23916810E+00 -1.37621982E+00 -1.88061413E-06  2.23916810E+00 -1.37621982E+00
 -1.88061413E-06  2.23916810E+00 -1.37621982E+00 -1.88061413E-06  2.23916810E+00
 -1.37621982E+00 -1.88061413E-06  2.23916810E+00 -1.37621982E+00 -1.88061413E-06
  2.23916810E+00 -1.37621982E+00 -1.88061413E-06  2.23916810E+00 -1.37621982E+00
 -1.88061413E-06  2.23916810E+00 -1.37621982E+00 -1.88061413E-06  2.23916810E+00
 -1.37621982E+00 -1.88061413E-06  2.23916810E+00 -1.37621982E+00 -1.88061413E-06
 -7.24851793E-02 -2.62706145E+00 -4.21423375E-07 -7.24851793E-02 -2.62706145E+00
 -4.21423375E-07 -7.24851793E-02 -2.62706145E+00 -4.21423375E-07 -7.24851793E-02
 -2.62706145E+00 -4.21423375E-07 -7.24851793E-02 -2.62706145E+00 -4.21423375E-07
 -7.24851793E-02 -2.62706145E+00 -4.21423375E-07 -7.24851793E-02 -2.62706145E+00
 -4.21423375E-07 -7.24851793E-02 -2.62706145E+00 -4.21423375E-07 -7.24851793E-02
 -2.62706145E+00 -4.21423375E-07 -7.24851793E-02 -2.62706145E+00 -4.21423375E-07
 -2.31149125E+00 -1.25092820E+00 -1.13898010E-05 -2.31149125E+00 -1.25092820E+00
 -1.13898010E-05 -2.31149125E+00 -1.25092820E+00 -1.13898010E-05 -2.31149125E+00
 -1.25092820E+00 -1.13898010E-05 -2.31149125E+00 -1.25092820E+00 -1.13898010E-05
 -2.31149125E+00 -1.25092820E+00 -1.13898010E-05 -2.31149125E+00 -1.25092820E+00
 -1.13898010E-05 -2.31149125E+00 -1.25092820E+00 -1.13898010E-05 -2.31149125E+00
 -1.25092820E+00 -1.13898010E-05 -2.31149125E+00 -1.25092820E+00 -1.13898010E-05
 -2.23910854E+00  1.37631646E+00 -1.06763714E-06 -2.23910854E+00  1.37631646E+00
 -1.06763714E-06 -2.23910854E+00  1.37631646E+00 -1.06763714E-06 -2.23910854E+00
  1.37631646E+00 -1.06763714E-06 -2.23910854E+00  1.37631646E+00 -1.06763714E-06
 -2.23910854E+00  1.37631646E+00 -1.06763714E-06 -2.23910854E+00  1.37631646E+00
 -1.06763714E-06 -2.23910854E+00  1.37631646E+00 -1.06763714E-06 -2.23910854E+00
  1.37631646E+00 -1.06763714E-06 -2.23910854E+00  1.37631646E+00 -1.06763714E-06
  7.23728981E-02  2.62706415E+00  6.27505941E-06  7.23728981E-02  2.62706415E+00
  6.27505941E-06  7.23728981E-02  2.62706415E+00  6.27505941E-06  7.23728981E-02
  2.62706415E+00  6.27505941E-06  7.23728981E-02  2.62706415E+00  6.27505941E-06
  7.23728981E-02  2.62706415E+00  6.27505941E-06  7.23728981E-02  2.62706415E+00
  6.27505941E-06  7.23728981E-02  2.62706415E+00  6.27505941E-06  7.23728981E-02
  2.62706415E+00  6.27505941E-06  7.23728981E-02  2.62706415E+00  6.27505941E-06
  2.31154503E+00  1.25082937E+00 -1.19580164E-07  2.31154503E+00  1.25082937E+00
 -1.19580164E-07  2.31154503E+00  1.25082937E+00 -1.19580164E-07  2.31154503E+00
  1.25082937E+00 -1.19580164E-07  2.31154503E+00  1.25082937E+00 -1.19580164E-07
  2.31154503E+00  1.25082937E+00 -1.19580164E-07  2.31154503E+00  1.25082937E+00
 -1.19580164E-07  2.31154503E+00  1.25082937E+00 -1.19580164E-07  2.31154503E+00
  1.25082937E+00 -1.19580164E-07  2.31154503E+00  1.25082937E+00 -1.19580164E-07
  3.98088205E+00 -2.44732671E+00  1.03875913E-05  3.98088205E+00 -2.44732671E+00
  1.03875913E-05  3.98088205E+00 -2.44732671E+00  1.03875913E-05  3.98088205E+00
 -2.44732671E+00  1.03875913E-05  3.98088205E+00 -2.44732671E+00  1.03875913E-05
  3.98088205E+00 -2.44732671E+00  1.03875913E-05 -1.28796545E-01 -4.67101875E+00
  2.33682953E-05 -1.28796545E-01 -4.67101875E+00  2.33682953E-05 -1.28796545E-01
 -4.67101875E+00  2.33682953E-05 -1.28796545E-01 -4.67101875E+00  2.33682953E-05
 -1.28796545E-01 -4.67101875E+00  2.33682953E-05 -1.28796545E-01 -4.67101875E+00
  2.33682953E-05 -4.10987329E+00 -2.22388721E+00  2.37075996E-05 -4.10987329E+00
 -2.22388721E+00  2.37075996E-05 -4.10987329E+00 -2.22388721E+00  2.37075996E-05
 -4.10987329E+00 -2.22388721E+00  2.37075996E-05 -4.10987329E+00 -2.22388721E+00
  2.37075996E-05 -4.10987329E+00 -2.22388721E+00  2.37075996E-05 -3.98096407E+00
  2.44719200E+00  7.71467577E-06 -3.98096407E+00  2.44719200E+00  7.71467577E-06
 -3.98096407E+00  2.44719200E+00  7.71467577E-06 -3.98096407E+00  2.44719200E+00
  7.71467577E-06 -3.98096407E+00  2.44719200E+00  7.71467577E-06 -3.98096407E+00
  2.44719200E+00  7.71467577E-06  1.28945339E-01  4.67101400E+00  6.98702372E-07
  1.28945339E-01  4.67101400E+00  6.98702372E-07  1.28945339E-01  4.67101400E+00
  6.98702372E-07  1.28945339E-01  4.67101400E+00  6.98702372E-07  1.28945339E-01
  4.67101400E+00  6.98702372E-07  1.28945339E-01  4.67101400E+00  6.98702372E-07
  4.10980006E+00  2.22402362E+00 -1.42528860E-05  4.10980006E+00  2.22402362E+00
 -1.42528860E-05  4.10980006E+00  2.22402362E+00 -1.42528860E-05  4.10980006E+00
  2.22402362E+00 -1.42528860E-05  4.10980006E+00  2.22402362E+00 -1.42528860E-05
  4.10980006E+00  2.22402362E+00 -1.42528860E-05
Constraint Structure                       R   N=          36
  2.23916810E+00 -1.37621982E+00 -1.88061413E-06 -7.24851793E-02 -2.62706145E+00
 -4.21423375E-07 -2.31149125E+00 -1.25092820E+00 -1.13898010E-05 -2.23910854E+00
  1.37631646E+00 -1.06763714E-06  7.23728981E-02  2.62706415E+00  6.27505941E-06
  2.31154503E+00  1.25082937E+00 -1.19580164E-07  3.98088205E+00 -2.44732671E+00
  1.03875913E-05 -1.28796545E-01 -4.67101875E+00  2.33682953E-05 -4.10987329E+00
 -2.22388721E+00  2.37075996E-05 -3.98096407E+00  2.44719200E+00  7.71467577E-06
  1.28945339E-01  4.67101400E+00  6.98702372E-07  4.10980006E+00  2.22402362E+00
 -1.42528860E-05
Num ILSW                                   I              100
ILSW                                       I   N=         100
           0           0           0           0           2           0
           0           0           0           0         402          -1
           0           0           0           0           0           0
           0           0           0           0           0           0
           1           0           0           0           0           0
           0           0      100000           0          -1           0
           0           0           0           0           0           0
           0           0           0           1           0           0
           0           0           1           0           0           0
           0           0           4          40           0           0
           0           0           5           0           0           0
           0           0           0           0           0           0
           0           0           0           0           0           0
           0           0           0           0           0           0
           0           0           0           0           0           0
           0           0           0           0           0           0
           0           0           0           0
Num RLSW                                   I               40
RLSW                                       R   N=          40
  8.00000000E-01  7.20000000E-01  1.00000000E+00  8.10000000E-01  2.00000000E-01
  0.00000000E+00  0.00000000E+00  1.00000000E+00  0.00000000E+00  0.00000000E+00
  0.00000000E+00  0.00000000E+00  1.00000000E+00  0.00000000E+00  0.00000000E+00
  0.00000000E+00  0.00000000E+00  1.00000000E+00  0.00000000E+00  0.00000000E+00
  0.00000000E+00  0.00000000E+00  1.00000000E+00  0.00000000E+00  0.00000000E+00
  0.00000000E+00  0.00000000E+00  1.00000000E+00  0.00000000E+00  0.00000000E+00
  0.00000000E+00  0.00000000E+00  1.00000000E+00  0.00000000E+00  0.00000000E+00
  0.00000000E+00  0.00000000E+00  0.00000000E+00  1.00000000E+00  1.00000000E+00
MxBond                                     I                3
NBond                                      I   N=          12
           3           3           3           3           3           3
           1           1           1           1           1           1
IBond                                      I   N=          36
           2           6           7           1           3           8
           2           4           9           3           5          10
           4           6          11           1           5          12
           1           0           0           2           0           0
           3           0           0           4           0           0
           5           0           0           6           0           0
RBond                                      R   N=          36
  1.50000000E+00  1.50000000E+00  1.00000000E+00  1.50000000E+00  1.50000000E+00
  1.00000000E+00  1.50000000E+00  1.50000000E+00  1.00000000E+00  1.50000000E+00
  1.50000000E+00  1.00000000E+00  1.50000000E+00  1.50000000E+00  1.00000000E+00
  1.50000000E+00  1.50000000E+00  1.00000000E+00  1.00000000E+00  0.00000000E+00
  0.00000000E+00  1.00000000E+00  0.00000000E+00  0.00000000E+00  1.00000000E+00
  0.00000000E+00  0.00000000E+00  1.00000000E+00  0.00000000E+00  0.00000000E+00
  1.00000000E+00  0.00000000E+00  0.00000000E+00  1.00000000E+00  0.00000000E+00
  0.00000000E+00
Virial Ratio                               R      2.006902914879983E+00
SCF Energy                                 R     -2.323333713902490E+02
Total Energy                               R     -2.323333713902490E+02
RMS Density                                R      3.416726247977239E-09
External E-field                           R   N=          35
  0.00000000E+00  0.00000000E+00  0.00000000E+00  0.00000000E+00  0.00000000E+00
  0.00000000E+00  0.00000000E+00  0.00000000E+00  0.00000000E+00  0.00000000E+00
  0.00000000E+00  0.00000000E+00  0.00000000E+00  0.00000000E+00  0.00000000E+00
  0.00000000E+00  0.00000000E+00  0.00000000E+00  0.00000000E+00  0.00000000E+00
  0.00000000E+00  0.00000000E+00  0.00000000E+00  0.00000000E+00  0.00000000E+00
  0.00000000E+00  0.00000000E+00  0.00000000E+00  0.00000000E+00  0.00000000E+00
  0.00000000E+00  0.00000000E+00  0.00000000E+00  0.00000000E+00  0.00000000E+00
IOpCl                                      I                0
IROHF                                      I                0
Alpha Orbital Energies                     R   N=         264
 -1.01785659E+01 -1.01783035E+01 -1.01783012E+01 -1.01777059E+01 -1.01777033E+01
 -1.01774368E+01 -8.57829436E-01 -7.49059274E-01 -7.49032577E-01 -6.05755259E-01
 -6.05750201E-01 -5.27766506E-01 -4.63673195E-01 -4.50626463E-01 -4.25096308E-01
 -4.25057730E-01 -3.72308200E-01 -3.47698833E-01 -3.47677318E-01 -2.58331128E-01
 -2.58311238E-01 -1.20863781E-02 -1.20755904E-02  3.94785062E-02  7.08476361E-02
  7.08545429E-02  1.01897456E-01  1.01904518E-01  1.27652378E-01  1.44287441E-01
  2.31819491E-01  2.31829910E-01  2.57026782E-01  2.60752204E-01  2.65617557E-01
  2.65638540E-01  2.78596811E-01  3.21685937E-01  3.21689048E-01  3.54512433E-01
  3.63140195E-01  3.63176208E-01  3.88811465E-01  3.99424582E-01  3.99450831E-01
  4.04827836E-01  4.04867950E-01  4.35247140E-01  4.35263568E-01  4.46880312E-01
  4.80351603E-01  4.82659208E-01  4.82673609E-01  4.97095294E-01  4.97820788E-01
  5.47660439E-01  5.48287713E-01  5.48316915E-01  5.75031399E-01  5.75057828E-01
  6.50857254E-01  6.75021738E-01  6.75044170E-01  7.10310656E-01  7.28820517E-01
  7.28844330E-01  7.48946624E-01  7.62418569E-01  7.62436484E-01  7.98985423E-01
  8.61172883E-01  8.61260539E-01  8.97551974E-01  9.26248900E-01  9.61134571E-01
  1.00281624E+00  1.00287001E+00  1.01924054E+00  1.01924246E+00  1.02172789E+00
  1.08955528E+00  1.08960675E+00  1.09945297E+00  1.10868485E+00  1.10873928E+00
  1.16896099E+00  1.16896980E+00  1.25292493E+00  1.25299218E+00  1.26534542E+00
  1.26629889E+00  1.26996709E+00  1.26999152E+00  1.28488045E+00  1.28489942E+00
  1.37141720E+00  1.37147122E+00  1.38005812E+00  1.38007762E+00  1.38743026E+00
  1.40415355E+00  1.40426697E+00  1.46868854E+00  1.48543757E+00  1.48548272E+00
  1.52450953E+00  1.58255176E+00  1.66784791E+00  1.85836043E+00  1.92848846E+00
  1.92854994E+00  1.96678051E+00  1.96935996E+00  1.98848618E+00  1.98851946E+00
  2.06232156E+00  2.09181681E+00  2.09182607E+00  2.14379900E+00  2.16464101E+00
  2.16470142E+00  2.17648674E+00  2.17649715E+00  2.29037222E+00  2.35307214E+00
  2.41400583E+00  2.41404816E+00  2.45682431E+00  2.45685967E+00  2.47309149E+00
  2.49992568E+00  2.56960225E+00  2.56967212E+00  2.60944632E+00  2.63341775E+00
  2.63344809E+00  2.68309806E+00  2.68414561E+00  2.68415683E+00  2.69768305E+00
  2.69773084E+00  2.74922182E+00  2.75002589E+00  2.75006708E+00  2.78629864E+00
  2.83060777E+00  2.83063892E+00  2.90317592E+00  2.90451222E+00  2.90454250E+00
  2.96673585E+00  2.96676041E+00  2.98327876E+00  2.98331277E+00  3.01387858E+00
  3.04330113E+00  3.05269116E+00  3.05274166E+00  3.05688828E+00  3.05690875E+00
  3.05912718E+00  3.05915429E+00  3.08381541E+00  3.10969341E+00  3.11799794E+00
  3.11804311E+00  3.13641418E+00  3.16991788E+00  3.28388945E+00  3.30180617E+00
  3.30185445E+00  3.31495459E+00  3.33025060E+00  3.33030411E+00  3.36366646E+00
  3.36370388E+00  3.38130548E+00  3.38132282E+00  3.39456834E+00  3.39457853E+00
  3.41740695E+00  3.56136950E+00  3.56142406E+00  3.57809077E+00  3.60219170E+00
  3.73416855E+00  3.75300366E+00  3.76716920E+00  3.76719644E+00  3.77162635E+00
  3.77321099E+00  3.77323547E+00  3.77808327E+00  3.78896679E+00  3.79460879E+00
  3.79467722E+00  3.84298886E+00  3.84299929E+00  3.84351322E+00  3.88345873E+00
  3.88348239E+00  4.00630358E+00  4.00636823E+00  4.01594763E+00  4.08167800E+00
  4.08172865E+00  4.09232491E+00  4.09440274E+00  4.09979280E+00  4.09990031E+00
  4.17123083E+00  4.19002148E+00  4.20817545E+00  4.20818192E+00  4.23441909E+00
  4.31758908E+00  4.31766505E+00  4.32077783E+00  4.32085013E+00  4.32317871E+00
  4.32324052E+00  4.35440006E+00  4.35441861E+00  4.49328669E+00  4.54029016E+00
  4.54037476E+00  4.65694385E+00  4.66397029E+00  4.66403635E+00  4.71880925E+00
  4.75988082E+00  4.75989548E+00  4.77248562E+00  4.77252170E+00  4.81397476E+00
  4.90961646E+00  4.94782241E+00  5.02161056E+00  5.02905913E+00  5.02913137E+00
  5.03792921E+00  5.05606162E+00  5.05615419E+00  5.16095854E+00  5.16105038E+00
  5.35344690E+00  5.35350748E+00  5.46412488E+00  5.68298084E+00  5.68324040E+00
  5.71266140E+00  5.87463922E+00  5.87470569E+00  5.95900888E+00  6.12566105E+00
  6.12574268E+00  6.44927923E+00  6.93770783E+00  8.90258214E+00  1.24062614E+01
  1.24066079E+01  1.29124927E+01  1.29131390E+01  1.54763374E+01
Alpha MO coefficients                      R   N=       69696
  3.98961063E-01  3.24865471E-03  2.16605150E-02  4.23681906E-03 -3.31560353E-04
  2.03560776E-04 -2.13223572E-10  4.11168445E-03 -2.52831452E-03  2.57876906E-08