benz                                                                    
Freq      RB3LYP                                                      CC-pVTZ             
Number of atoms                            I               12
Info1-9                                    I   N=           9
          22          22        1002           0           0         101
           6          18        -502
Charge                                     I                0
Multiplicity                               I                1
Number of electrons                        I               42
Number of alpha electrons                  I               21
Number of beta electrons                   I               21
Number of basis functions                  I              264
Number of independent functions            I              264
Number of point charges in /Mol/           I                0
Number of translation vectors              I                0
Atomic numbers                             I   N=          12
           6           6           6           6           6           6
           1           1           1           1           1           1
Nuclear charges                            R   N=          12
  6.00000000E+00  6.00000000E+00  6.00000000E+00  6.00000000E+00  6.00000000E+00
  6.00000000E+00  1.00000000E+00  1.00000000E+00  1.00000000E+00  1.00000000E+00
  1.00000000E+00  1.00000000E+00
Current cartesian coordinates              R   N=          36
 -2.23916646E+00 -1.37622250E+00  1.88061413E-06  7.24883179E-02 -2.62706136E+00
  4.21423377E-07  2.31149274E+00 -1.25092544E+00  1.13898010E-05  2.23910689E+00
  1.37631914E+00  1.06763714E-06 -7.23760379E-02  2.62706406E+00 -6.27505941E-06
 -2.31154653E+00  1.25082661E+00  1.19580166E-07 -3.98087913E+00 -2.44733147E+00
 -1.03875913E-05  1.28802126E-01 -4.67101860E+00 -2.33682953E-05  4.10987595E+00
 -2.22388230E+00 -2.37075996E-05  3.98096115E+00  2.44719676E+00 -7.71467577E-06
 -1.28950921E-01  4.67101385E+00 -6.98702370E-07 -4.10980272E+00  2.22401871E+00
  1.42528860E-05
Force Field                                I                0
Int Atom Types                             I   N=          12
           0           0           0           0           0           0
           0           0           0           0           0           0
MM charges                                 R   N=          12
  0.00000000E+00  0.00000000E+00  0.00000000E+00  0.00000000E+00  0.00000000E+00
  0.00000000E+00  0.00000000E+00  0.00000000E+00  0.00000000E+00  0.00000000E+00
  0.00000000E+00  0.00000000E+00
Integer atomic weights                     I   N=          12
          12          12          12          12          12          12
           1           1           1           1           1           1
Real atomic weights                        R   N=          12
  1.20000000E+01  1.20000000E+01  1.20000000E+01  1.20000000E+01  1.20000000E+01
  1.20000000E+01  1.00782504E+00  1.00782504E+00  1.00782504E+00  1.00782504E+00
  1.00782504E+00  1.00782504E+00
Atom fragment info                         I   N=          12
           0           0           0           0           0           0
           0           0           0           0           0           0
Atom residue num                           I   N=          12
           0           0           0           0           0           0
           0           0           0           0           0           0
Nuclear spins                              I   N=          12
           0           0           0           0           0           0
           1           1           1           1           1           1
Nuclear ZEff                               R   N=          12
 -3.60000000E+00 -3.60000000E+00 -3.60000000E+00 -3.60000000E+00 -3.60000000E+00
 -3.60000000E+00 -1.00000000E+00 -1.00000000E+00 -1.00000000E+00 -1.00000000E+00
 -1.00000000E+00 -1.00000000E+00
Nuclear QMom                               R   N=          12
  0.00000000E+00  0.00000000E+00  0.00000000E+00  0.00000000E+00  0.00000000E+00
  0.00000000E+00  0.00000000E+00  0.00000000E+00  0.00000000E+00  0.00000000E+00
  0.00000000E+00  0.00000000E+00
Nuclear GFac                               R   N=          12
  0.00000000E+00  0.00000000E+00  0.00000000E+00  0.00000000E+00  0.00000000E+00
  0.00000000E+00  2.79284600E+00  2.79284600E+00  2.79284600E+00  2.79284600E+00
  2.79284600E+00  2.79284600E+00
MicOpt                                     I   N=          12
          -1          -1          -1          -1          -1          -1
          -1          -1          -1          -1          -1          -1
Number of contracted shells                I               96
Number of primitive shells                 I              186
Pure/Cartesian d shells                    I                0
Pure/Cartesian f shells                    I                0
Highest angular momentum                   I                3
Largest degree of contraction              I                7
Shell types                                I   N=          96
           0           0           0           0           1           1
           1          -2          -2          -3           0           0
           0           0           1           1           1          -2
          -2          -3           0           0           0           0
           1           1           1          -2          -2          -3
           0           0           0           0           1           1
           1          -2          -2          -3           0           0
           0           0           1           1           1          -2
          -2          -3           0           0           0           0
           1           1           1          -2          -2          -3
           0           0           0           1           1          -2
           0           0           0           1           1          -2
           0           0           0           1           1          -2
           0           0           0           1           1          -2
           0           0           0           1           1          -2
           0           0           0           1           1          -2
Number of primitives per shell             I   N=          96
           7           6           1           1           3           1
           1           1           1           1           7           6
           1           1           3           1           1           1
           1           1           7           6           1           1
           3           1           1           1           1           1
           7           6           1           1           3           1
           1           1           1           1           7           6
           1           1           3           1           1           1
           1           1           7           6           1           1
           3           1           1           1           1           1
           3           1           1           1           1           1
           3           1           1           1           1           1
           3           1           1           1           1           1
           3           1           1           1           1           1
           3           1           1           1           1           1
           3           1           1           1           1           1
Shell to atom map                          I   N=          96
           1           1           1           1           1           1
           1           1           1           1           2           2
           2           2           2           2           2           2
           2           2           3           3           3           3
           3           3           3           3           3           3
           4           4           4           4           4           4
           4           4           4           4           5           5
           5           5           5           5           5           5
           5           5           6           6           6           6
           6           6           6           6           6           6
           7           7           7           7           7           7
           8           8           8           8           8           8
           9           9           9           9           9           9
          10          10          10          10          10          10
          11          11          11          11          11          11
          12          12          12          12          12          12
Primitive exponents                        R   N=         186
  8.23600000E+03  1.23500000E+03  2.80800000E+02  7.92700000E+01  2.55900000E+01
  8.99700000E+00  3.31900000E+00  2.80800000E+02  7.92700000E+01  2.55900000E+01
  8.99700000E+00  3.31900000E+00  3.64300000E-01  9.05900000E-01  1.28500000E-01
  1.87100000E+01  4.13300000E+00  1.20000000E+00  3.82700000E-01  1.20900000E-01
  1.09700000E+00  3.18000000E-01  7.61000000E-01  8.23600000E+03  1.23500000E+03
  2.80800000E+02  7.92700000E+01  2.55900000E+01  8.99700000E+00  3.31900000E+00
  2.80800000E+02  7.92700000E+01  2.55900000E+01  8.99700000E+00  3.31900000E+00
  3.64300000E-01  9.05900000E-01  1.28500000E-01  1.87100000E+01  4.13300000E+00
  1.20000000E+00  3.82700000E-01  1.20900000E-01  1.09700000E+00  3.18000000E-01
  7.61000000E-01  8.23600000E+03  1.23500000E+03  2.80800000E+02  7.92700000E+01
  2.55900000E+01  8.99700000E+00  3.31900000E+00  2.80800000E+02  7.92700000E+01
  2.55900000E+01  8.99700000E+00  3.31900000E+00  3.64300000E-01  9.05900000E-01
  1.28500000E-01  1.87100000E+01  4.13300000E+00  1.20000000E+00  3.82700000E-01
  1.20900000E-01  1.09700000E+00  3.18000000E-01  7.61000000E-01  8.23600000E+03
  1.23500000E+03  2.80800000E+02  7.92700000E+01  2.55900000E+01  8.99700000E+00
  3.31900000E+00  2.80800000E+02  7.92700000E+01  2.55900000E+01  8.99700000E+00
  3.31900000E+00  3.64300000E-01  9.05900000E-01  1.28500000E-01  1.87100000E+01
  4.13300000E+00  1.20000000E+00  3.82700000E-01  1.20900000E-01  1.09700000E+00
  3.18000000E-01  7.61000000E-01  8.23600000E+03  1.23500000E+03  2.80800000E+02
  7.92700000E+01  2.55900000E+01  8.99700000E+00  3.31900000E+00  2.80800000E+02
  7.92700000E+01  2.55900000E+01  8.99700000E+00  3.31900000E+00  3.64300000E-01
  9.05900000E-01  1.28500000E-01  1.87100000E+01  4.13300000E+00  1.20000000E+00
  3.82700000E-01  1.20900000E-01  1.09700000E+00  3.18000000E-01  7.61000000E-01
  8.23600000E+03  1.23500000E+03  2.80800000E+02  7.92700000E+01  2.55900000E+01
  8.99700000E+00  3.31900000E+00  2.80800000E+02  7.92700000E+01  2.55900000E+01
  8.99700000E+00  3.31900000E+00  3.64300000E-01  9.05900000E-01  1.28500000E-01
  1.87100000E+01  4.13300000E+00  1.20000000E+00  3.82700000E-01  1.20900000E-01
  1.09700000E+00  3.18000000E-01  7.61000000E-01  3.38700000E+01  5.09500000E+00
  1.15900000E+00  3.25800000E-01  1.02700000E-01  1.40700000E+00  3.88000000E-01
  1.05700000E+00  3.38700000E+01  5.09500000E+00  1.15900000E+00  3.25800000E-01
  1.02700000E-01  1.40700000E+00  3.88000000E-01  1.05700000E+00  3.38700000E+01
  5.09500000E+00  1.15900000E+00  3.25800000E-01  1.02700000E-01  1.40700000E+00
  3.88000000E-01  1.05700000E+00  3.38700000E+01  5.09500000E+00  1.15900000E+00
  3.25800000E-01  1.02700000E-01  1.40700000E+00  3.88000000E-01  1.05700000E+00
  3.38700000E+01  5.09500000E+00  1.15900000E+00  3.25800000E-01  1.02700000E-01
  1.40700000E+00  3.88000000E-01  1.05700000E+00  3.38700000E+01  5.09500000E+00
  1.15900000E+00  3.25800000E-01  1.02700000E-01  1.40700000E+00  3.88000000E-01
  1.05700000E+00
Contraction coefficients                   R   N=         186
  5.41978320E-04  4.19287382E-03  2.15221621E-02  8.35343220E-02  2.39582846E-01
  4.42852842E-01  3.51799562E-01 -5.94922494E-05 -1.14815831E-03 -1.00191374E-02
 -6.12194923E-02 -1.73269854E-01  1.07291519E+00  1.00000000E+00  1.00000000E+00
  3.94263872E-02  2.44088985E-01  8.15492009E-01  1.00000000E+00  1.00000000E+00
  1.00000000E+00  1.00000000E+00  1.00000000E+00  5.41978320E-04  4.19287382E-03
  2.15221621E-02  8.35343220E-02  2.39582846E-01  4.42852842E-01  3.51799562E-01
 -5.94922494E-05 -1.14815831E-03 -1.00191374E-02 -6.12194923E-02 -1.73269854E-01
  1.07291519E+00  1.00000000E+00  1.00000000E+00  3.94263872E-02  2.44088985E-01
  8.15492009E-01  1.00000000E+00  1.00000000E+00  1.00000000E+00  1.00000000E+00
  1.00000000E+00  5.41978320E-04  4.19287382E-03  2.15221621E-02  8.35343220E-02
  2.39582846E-01  4.42852842E-01  3.51799562E-01 -5.94922494E-05 -1.14815831E-03
 -1.00191374E-02 -6.12194923E-02 -1.73269854E-01  1.07291519E+00  1.00000000E+00
  1.00000000E+00  3.94263872E-02  2.44088985E-01  8.15492009E-01  1.00000000E+00
  1.00000000E+00  1.00000000E+00  1.00000000E+00  1.00000000E+00  5.41978320E-04
  4.19287382E-03  2.15221621E-02  8.35343220E-02  2.39582846E-01  4.42852842E-01
  3.51799562E-01 -5.94922494E-05 -1.14815831E-03 -1.00191374E-02 -6.12194923E-02
 -1.73269854E-01  1.07291519E+00  1.00000000E+00  1.00000000E+00  3.94263872E-02
  2.44088985E-01  8.15492009E-01  1.00000000E+00  1.00000000E+00  1.00000000E+00
  1.00000000E+00  1.00000000E+00  5.41978320E-04  4.19287382E-03  2.15221621E-02
  8.35343220E-02  2.39582846E-01  4.42852842E-01  3.51799562E-01 -5.94922494E-05
 -1.14815831E-03 -1.00191374E-02 -6.12194923E-02 -1.73269854E-01  1.07291519E+00
  1.00000000E+00  1.00000000E+00  3.94263872E-02  2.44088985E-01  8.15492009E-01
  1.00000000E+00  1.00000000E+00  1.00000000E+00  1.00000000E+00  1.00000000E+00
  5.41978320E-04  4.19287382E-03  2.15221621E-02  8.35343220E-02  2.39582846E-01
  4.42852842E-01  3.51799562E-01 -5.94922494E-05 -1.14815831E-03 -1.00191374E-02
 -6.12194923E-02 -1.73269854E-01  1.07291519E+00  1.00000000E+00  1.00000000E+00
  3.94263872E-02  2.44088985E-01  8.15492009E-01  1.00000000E+00  1.00000000E+00
  1.00000000E+00  1.00000000E+00  1.00000000E+00  2.54948632E-02  1.90362766E-01
  8.52162022E-01  1.00000000E+00  1.00000000E+00  1.00000000E+00  1.00000000E+00
  1.00000000E+00  2.54948632E-02  1.90362766E-01  8.52162022E-01  1.00000000E+00
  1.00000000E+00  1.00000000E+00  1.00000000E+00  1.00000000E+00  2.54948632E-02
  1.90362766E-01  8.52162022E-01  1.00000000E+00  1.00000000E+00  1.00000000E+00
  1.00000000E+00  1.00000000E+00  2.54948632E-02  1.90362766E-01  8.52162022E-01
  1.00000000E+00  1.00000000E+00  1.00000000E+00  1.00000000E+00  1.00000000E+00
  2.54948632E-02  1.90362766E-01  8.52162022E-01  1.00000000E+00  1.00000000E+00
  1.00000000E+00  1.00000000E+00  1.00000000E+00  2.54948632E-02  1.90362766E-01
  8.52162022E-01  1.00000000E+00  1.00000000E+00  1.00000000E+00  1.00000000E+00
  1.00000000E+00
Coordinates of each shell                  R   N=         288
 -2.23916646E+00 -1.37622250E+00  1.88061413E-06 -2.23916646E+00 -1.37622250E+00
  1.88061413E-06 -2.23916646E+00 -1.37622250E+00  1.88061413E-06 -2.23916646E+00
 -1.37622250E+00  1.88061413E-06 -2.23916646E+00 -1.37622250E+00  1.88061413E-06
 -2.23916646E+00 -1.37622250E+00  1.88061413E-06 -2.23916646E+00 -1.37622250E+00
  1.88061413E-06 -2.23916646E+00 -1.37622250E+00  1.88061413E-06 -2.23916646E+00
 -1.37622250E+00  1.88061413E-06 -2.23916646E+00 -1.37622250E+00  1.88061413E-06
  7.24883179E-02 -2.62706136E+00  4.21423377E-07  7.24883179E-02 -2.62706136E+00
  4.21423377E-07  7.24883179E-02 -2.62706136E+00  4.21423377E-07  7.24883179E-02
 -2.62706136E+00  4.21423377E-07  7.24883179E-02 -2.62706136E+00  4.21423377E-07
  7.24883179E-02 -2.62706136E+00  4.21423377E-07  7.24883179E-02 -2.62706136E+00
  4.21423377E-07  7.24883179E-02 -2.62706136E+00  4.21423377E-07  7.24883179E-02
 -2.62706136E+00  4.21423377E-07  7.24883179E-02 -2.62706136E+00  4.21423377E-07
  2.31149274E+00 -1.25092544E+00  1.13898010E-05  2.31149274E+00 -1.25092544E+00
  1.13898010E-05  2.31149274E+00 -1.25092544E+00  1.13898010E-05  2.31149274E+00
 -1.25092544E+00  1.13898010E-05  2.31149274E+00 -1.25092544E+00  1.13898010E-05
  2.31149274E+00 -1.25092544E+00  1.13898010E-05  2.31149274E+00 -1.25092544E+00
  1.13898010E-05  2.31149274E+00 -1.25092544E+00  1.13898010E-05  2.31149274E+00
 -1.25092544E+00  1.13898010E-05  2.31149274E+00 -1.25092544E+00  1.13898010E-05
  2.23910689E+00  1.37631914E+00  1.06763714E-06  2.23910689E+00  1.37631914E+00
  1.06763714E-06  2.23910689E+00  1.37631914E+00  1.06763714E-06  2.23910689E+00
  1.37631914E+00  1.06763714E-06  2.23910689E+00  1.37631914E+00  1.06763714E-06
  2.23910689E+00  1.37631914E+00  1.06763714E-06  2.23910689E+00  1.37631914E+00
  1.06763714E-06  2.23910689E+00  1.37631914E+00  1.06763714E-06  2.23910689E+00
  1.37631914E+00  1.06763714E-06  2.23910689E+00  1.37631914E+00  1.06763714E-06
 -7.23760379E-02  2.62706406E+00 -6.27505941E-06 -7.23760379E-02  2.62706406E+00
 -6.27505941E-06 -7.23760379E-02  2.62706406E+00 -6.27505941E-06 -7.23760379E-02
  2.62706406E+00 -6.27505941E-06 -7.23760379E-02  2.62706406E+00 -6.27505941E-06
 -7.23760379E-02  2.62706406E+00 -6.27505941E-06 -7.23760379E-02  2.62706406E+00
 -6.27505941E-06 -7.23760379E-02  2.62706406E+00 -6.27505941E-06 -7.23760379E-02
  2.62706406E+00 -6.27505941E-06 -7.23760379E-02  2.62706406E+00 -6.27505941E-06
 -2.31154653E+00  1.25082661E+00  1.19580166E-07 -2.31154653E+00  1.25082661E+00
  1.19580166E-07 -2.31154653E+00  1.25082661E+00  1.19580166E-07 -2.31154653E+00
  1.25082661E+00  1.19580166E-07 -2.31154653E+00  1.25082661E+00  1.19580166E-07
 -2.31154653E+00  1.25082661E+00  1.19580166E-07 -2.31154653E+00  1.25082661E+00
  1.19580166E-07 -2.31154653E+00  1.25082661E+00  1.19580166E-07 -2.31154653E+00
  1.25082661E+00  1.19580166E-07 -2.31154653E+00  1.25082661E+00  1.19580166E-07
 -3.98087913E+00 -2.44733147E+00 -1.03875913E-05 -3.98087913E+00 -2.44733147E+00
 -1.03875913E-05 -3.98087913E+00 -2.44733147E+00 -1.03875913E-05 -3.98087913E+00
 -2.44733147E+00 -1.03875913E-05 -3.98087913E+00 -2.44733147E+00 -1.03875913E-05
 -3.98087913E+00 -2.44733147E+00 -1.03875913E-05  1.28802126E-01 -4.67101860E+00
 -2.33682953E-05  1.28802126E-01 -4.67101860E+00 -2.33682953E-05  1.28802126E-01
 -4.67101860E+00 -2.33682953E-05  1.28802126E-01 -4.67101860E+00 -2.33682953E-05
  1.28802126E-01 -4.67101860E+00 -2.33682953E-05  1.28802126E-01 -4.67101860E+00
 -2.33682953E-05  4.10987595E+00 -2.22388230E+00 -2.37075996E-05  4.10987595E+00
 -2.22388230E+00 -2.37075996E-05  4.10987595E+00 -2.22388230E+00 -2.37075996E-05
  4.10987595E+00 -2.22388230E+00 -2.37075996E-05  4.10987595E+00 -2.22388230E+00
 -2.37075996E-05  4.10987595E+00 -2.22388230E+00 -2.37075996E-05  3.98096115E+00
  2.44719676E+00 -7.71467577E-06  3.98096115E+00  2.44719676E+00 -7.71467577E-06
  3.98096115E+00  2.44719676E+00 -7.71467577E-06  3.98096115E+00  2.44719676E+00
 -7.71467577E-06  3.98096115E+00  2.44719676E+00 -7.71467577E-06  3.98096115E+00
  2.44719676E+00 -7.71467577E-06 -1.28950921E-01  4.67101385E+00 -6.98702370E-07
 -1.28950921E-01  4.67101385E+00 -6.98702370E-07 -1.28950921E-01  4.67101385E+00
 -6.98702370E-07 -1.28950921E-01  4.67101385E+00 -6.98702370E-07 -1.28950921E-01
  4.67101385E+00 -6.98702370E-07 -1.28950921E-01  4.67101385E+00 -6.98702370E-07
 -4.10980272E+00  2.22401871E+00  1.42528860E-05 -4.10980272E+00  2.22401871E+00
  1.42528860E-05 -4.10980272E+00  2.22401871E+00  1.42528860E-05 -4.10980272E+00
  2.22401871E+00  1.42528860E-05 -4.10980272E+00  2.22401871E+00  1.42528860E-05
 -4.10980272E+00  2.22401871E+00  1.42528860E-05
Constraint Structure                       R   N=          36
 -2.23916646E+00 -1.37622250E+00  1.88061413E-06  7.24883179E-02 -2.62706136E+00
  4.21423377E-07  2.31149274E+00 -1.25092544E+00  1.13898010E-05  2.23910689E+00
  1.37631914E+00  1.06763714E-06 -7.23760379E-02  2.62706406E+00 -6.27505941E-06
 -2.31154653E+00  1.25082661E+00  1.19580166E-07 -3.98087913E+00 -2.44733147E+00
 -1.03875913E-05  1.28802126E-01 -4.67101860E+00 -2.33682953E-05  4.10987595E+00
 -2.22388230E+00 -2.37075996E-05  3.98096115E+00  2.44719676E+00 -7.71467577E-06
 -1.28950921E-01  4.67101385E+00 -6.98702370E-07 -4.10980272E+00  2.22401871E+00
  1.42528860E-05
Num ILSW                                   I              100
ILSW                                       I   N=         100
           0           0           0           0           0           0
           0           0           0           0         402          -1
           0           0           0           0           0           0
           0           0           1           0           0           0
           1           0           0           0           0           0
           0           0      100000           0          -1           0
           0           0           0           0           0           0
           0           0           0           1           0           0
           0           0           1           0           0           0
           0           0           4          40           0           0
           0           0           5           0           0           0
           0           0           0           0           0           0
           0           0           0           0           0           0
           0           0           0           0           0           0
           0           0           0           0           0           0
           0           0           0           0           0           0
           0           0           0           0
Num RLSW                                   I               40
RLSW                                       R   N=          40
  8.00000000E-01  7.20000000E-01  1.00000000E+00  8.10000000E-01  2.00000000E-01
  0.00000000E+00  0.00000000E+00  1.00000000E+00  0.00000000E+00  0.00000000E+00
  0.00000000E+00  0.00000000E+00  1.00000000E+00  0.00000000E+00  0.00000000E+00
  0.00000000E+00  0.00000000E+00  1.00000000E+00  0.00000000E+00  0.00000000E+00
  0.00000000E+00  0.00000000E+00  1.00000000E+00  0.00000000E+00  0.00000000E+00
  0.00000000E+00  0.00000000E+00  1.00000000E+00  0.00000000E+00  0.00000000E+00
  0.00000000E+00  0.00000000E+00  1.00000000E+00  0.00000000E+00  0.00000000E+00
  0.00000000E+00  0.00000000E+00  0.00000000E+00  1.00000000E+00  1.00000000E+00
MxBond                                     I                3
NBond                                      I   N=          12
           3           3           3           3           3           3
           1           1           1           1           1           1
IBond                                      I   N=          36
           2           6           7           1           3           8
           2           4           9           3           5          10
           4           6          11           1           5          12
           1           0           0           2           0           0
           3           0           0           4           0           0
           5           0           0           6           0           0
RBond                                      R   N=          36
  1.50000000E+00  1.50000000E+00  1.00000000E+00  1.50000000E+00  1.50000000E+00
  1.00000000E+00  1.50000000E+00  1.50000000E+00  1.00000000E+00  1.50000000E+00
  1.50000000E+00  1.00000000E+00  1.50000000E+00  1.50000000E+00  1.00000000E+00
  1.50000000E+00  1.50000000E+00  1.00000000E+00  1.00000000E+00  0.00000000E+00
  0.00000000E+00  1.00000000E+00  0.00000000E+00  0.00000000E+00  1.00000000E+00
  0.00000000E+00  0.00000000E+00  1.00000000E+00  0.00000000E+00  0.00000000E+00
  1.00000000E+00  0.00000000E+00  0.00000000E+00  1.00000000E+00  0.00000000E+00
  0.00000000E+00
Virial Ratio                               R      2.006902960976731E+00
SCF Energy                                 R     -2.323333710948141E+02
Total Energy                               R     -2.323333710948141E+02
RMS Force                                  R      4.450362071904940E-05
RMS Density                                R      9.767756973660504E-10
External E-field                           R   N=          35
  0.00000000E+00  0.00000000E+00  0.00000000E+00  0.00000000E+00  0.00000000E+00
  0.00000000E+00  0.00000000E+00  0.00000000E+00  0.00000000E+00  0.00000000E+00
  0.00000000E+00  0.00000000E+00  0.00000000E+00  0.00000000E+00  0.00000000E+00
  0.00000000E+00  0.00000000E+00  0.00000000E+00  0.00000000E+00  0.00000000E+00
  0.00000000E+00  0.00000000E+00  0.00000000E+00  0.00000000E+00  0.00000000E+00
  0.00000000E+00  0.00000000E+00  0.00000000E+00  0.00000000E+00  0.00000000E+00
  0.00000000E+00  0.00000000E+00  0.00000000E+00  0.00000000E+00  0.00000000E+00
IOpCl                                      I                0
IROHF                                      I                0
Alpha Orbital Energies                     R   N=         264
 -1.01785662E+01 -1.01783038E+01 -1.01783016E+01 -1.01777062E+01 -1.01777037E+01
 -1.01774372E+01 -8.57829394E-01 -7.49059232E-01 -7.49032556E-01 -6.05755241E-01
 -6.05750184E-01 -5.27766498E-01 -4.63673181E-01 -4.50626458E-01 -4.25096287E-01
 -4.25057738E-01 -3.72308193E-01 -3.47698827E-01 -3.47677313E-01 -2.58331117E-01
 -2.58311239E-01 -1.20863669E-02 -1.20755953E-02  3.94785110E-02  7.08476447E-02
  7.08545327E-02  1.01897435E-01  1.01904504E-01  1.27652357E-01  1.44287442E-01
  2.31819491E-01  2.31829912E-01  2.57026786E-01  2.60752141E-01  2.65617553E-01
  2.65638536E-01  2.78596810E-01  3.21685934E-01  3.21689052E-01  3.54512217E-01
  3.63140168E-01  3.63176187E-01  3.88811536E-01  3.99424633E-01  3.99450883E-01
  4.04827826E-01  4.04867957E-01  4.35247148E-01  4.35263572E-01  4.46880326E-01
  4.80351601E-01  4.82659216E-01  4.82673609E-01  4.97095297E-01  4.97820797E-01
  5.47660438E-01  5.48287643E-01  5.48316851E-01  5.75031389E-01  5.75057824E-01
  6.50857272E-01  6.75021765E-01  6.75044169E-01  7.10310648E-01  7.28820436E-01
  7.28844257E-01  7.48946466E-01  7.62418584E-01  7.62436497E-01  7.98985367E-01
  8.61172790E-01  8.61260444E-01  8.97551986E-01  9.26248907E-01  9.61134285E-01
  1.00281625E+00  1.00287002E+00  1.01924045E+00  1.01924237E+00  1.02172790E+00
  1.08955530E+00  1.08960674E+00  1.09945198E+00  1.10868485E+00  1.10873929E+00
  1.16896086E+00  1.16896965E+00  1.25292486E+00  1.25299210E+00  1.26534542E+00
  1.26629890E+00  1.26996710E+00  1.26999153E+00  1.28488042E+00  1.28489940E+00
  1.37141722E+00  1.37147122E+00  1.38005796E+00  1.38007745E+00  1.38743026E+00
  1.40415334E+00  1.40426677E+00  1.46868508E+00  1.48543620E+00  1.48548136E+00
  1.52450954E+00  1.58255177E+00  1.66784740E+00  1.85836043E+00  1.92848773E+00
  1.92854921E+00  1.96677988E+00  1.96935994E+00  1.98848572E+00  1.98851904E+00
  2.06232110E+00  2.09181675E+00  2.09182609E+00  2.14379901E+00  2.16463760E+00
  2.16469800E+00  2.17648671E+00  2.17649714E+00  2.29037223E+00  2.35307213E+00
  2.41400577E+00  2.41404811E+00  2.45682433E+00  2.45685968E+00  2.47309150E+00
  2.49992566E+00  2.56960227E+00  2.56967214E+00  2.60944633E+00  2.63341777E+00
  2.63344808E+00  2.68309807E+00  2.68414564E+00  2.68415683E+00  2.69768298E+00
  2.69773073E+00  2.74922171E+00  2.75002592E+00  2.75006708E+00  2.78629828E+00
  2.83060772E+00  2.83063887E+00  2.90317593E+00  2.90451224E+00  2.90454248E+00
  2.96673480E+00  2.96675936E+00  2.98327859E+00  2.98331260E+00  3.01387865E+00
  3.04330115E+00  3.05269119E+00  3.05274166E+00  3.05688840E+00  3.05690882E+00
  3.05912710E+00  3.05915419E+00  3.08381492E+00  3.10969340E+00  3.11799794E+00
  3.11804311E+00  3.13641419E+00  3.16991788E+00  3.28388945E+00  3.30180618E+00
  3.30185446E+00  3.31495459E+00  3.33025065E+00  3.33030413E+00  3.36366567E+00
  3.36370307E+00  3.38130549E+00  3.38132281E+00  3.39456836E+00  3.39457852E+00
  3.41740696E+00  3.56136947E+00  3.56142403E+00  3.57809078E+00  3.60219171E+00
  3.73416854E+00  3.75300366E+00  3.76716921E+00  3.76719645E+00  3.77162636E+00
  3.77321087E+00  3.77323535E+00  3.77808325E+00  3.78896679E+00  3.79460887E+00
  3.79467730E+00  3.84298886E+00  3.84299930E+00  3.84351149E+00  3.88345875E+00
  3.88348239E+00  4.00630342E+00  4.00636806E+00  4.01594793E+00  4.08167750E+00
  4.08172818E+00  4.09231743E+00  4.09440273E+00  4.09979281E+00  4.09990032E+00
  4.17123084E+00  4.19002149E+00  4.20817497E+00  4.20818144E+00  4.23441808E+00
  4.31758917E+00  4.31766514E+00  4.32077784E+00  4.32085013E+00  4.32317873E+00
  4.32324052E+00  4.35439983E+00  4.35441836E+00  4.49328122E+00  4.54029020E+00
  4.54037479E+00  4.65694387E+00  4.66396702E+00  4.66403309E+00  4.71880926E+00
  4.75987964E+00  4.75989431E+00  4.77248565E+00  4.77252169E+00  4.81397477E+00
  4.90961648E+00  4.94782284E+00  5.02161057E+00  5.02905915E+00  5.02913137E+00
  5.03792933E+00  5.05606120E+00  5.05615376E+00  5.16095800E+00  5.16104981E+00
  5.35344679E+00  5.35350737E+00  5.46412489E+00  5.68297984E+00  5.68323940E+00
  5.71265996E+00  5.87463938E+00  5.87470580E+00  5.95900886E+00  6.12566090E+00
  6.12574252E+00  6.44927954E+00  6.93770784E+00  8.90239262E+00  1.24058986E+01
  1.24062452E+01  1.29121356E+01  1.29127819E+01  1.54758589E+01
Alpha MO coefficients                      R   N=       69696
  3.98446120E-01 -2.59859106E-04  2.16785527E-02  4.23778499E-03  3.31691350E-04
  2.03275348E-04  2.12816472E-10 -4.11177971E-03 -2.52582710E-03 -2.58014209E-08
 -1.53296932E-03 -9.33189581E-04 -1.78779303E-08 -4.26271003E-04  5.89726707E-09
  3.04267650E-09  1.81486466E-04  3.60508086E-04 -5.46097925E-04  2.34316136E-08
  1.09200972E-08  9.40577185E-04  1.86336990E-03  5.19584346E-09  4.49064260E-04
  2.75125783E-04 -3.33786412E-09 -7.91853817E-09  5.10774254E-06 -5.55540070E-05
  3.98345361E-01 -2.60657211E-04  2.16731267E-02  4.23950681E-03 -1.16410795E-05
  3.88988033E-04  5.40091993E-09  1.41777251E-04 -4.82519888E-03 -5.95279484E-08